LAMMPS data file

5346 atoms
6105 bonds
10296 angles

10 atom types
19 bond types
41 angle types

# Cell dimensions: 491.637, 491.637, 491.637
0.000000	491.637 xlo xhi
0.000000	491.637 ylo yhi
0.000000	491.637 zlo zhi

Masses

1 13.01864 # A
2 13.01864 # C
3 14.02658 # D
4 32.065 # F
5 17.00734 # H
6 13.01864 # J
7 15.03452 # K
8 14.02658 # L
9 15.01464 # M
10 12.0107 # Q

Atoms

1 1 7 243.8860 241.3170 243.3700 # K 
2 1 6 245.0610 240.8630 244.2400 # J 
3 1 7 245.0930 239.3340 244.3000 # K 
4 1 8 244.9830 241.4420 245.6700 # L 
5 1 10 245.1550 242.9420 245.7200 # Q 
6 1 1 246.4100 243.5220 245.5500 # A 
7 1 10 246.6340 244.9210 245.5900 # Q 
8 1 10 245.5050 245.7510 245.8300 # Q 
9 1 10 245.6810 247.1520 245.9000 # Q 
10 1 1 244.5220 247.9270 246.1500 # A 
11 1 10 243.2330 247.3930 246.3000 # Q 
12 1 10 243.0590 246.0090 246.2000 # Q 
13 1 3 241.6750 245.4050 246.3800 # D 
14 1 2 240.4960 246.3950 246.3700 # C 
15 1 3 240.8810 247.6380 247.1700 # D 
16 1 2 242.0760 248.3550 246.5300 # C 
17 1 8 241.7350 249.0800 245.2000 # L 
18 1 7 240.6050 250.0930 245.3200 # K 
19 1 8 239.2260 245.7070 246.9100 # L 
20 1 8 237.9560 246.5370 246.6900 # L 
21 1 8 236.7090 245.7630 247.1200 # L 
22 1 7 235.4460 246.5840 246.9100 # K 
23 1 10 244.1960 245.1780 245.9900 # Q 
24 1 1 244.0670 243.7770 245.9400 # A 
25 1 10 246.9870 247.7310 245.7400 # Q 
26 1 1 247.2080 249.1260 245.8200 # A 
27 1 10 248.4640 249.6770 245.6500 # Q 
28 1 5 248.6750 251.0220 245.7400 # H 
29 1 1 249.5520 248.8710 245.3900 # A 
30 1 10 249.4300 247.4730 245.2800 # Q 
31 1 10 248.1190 246.9030 245.4700 # Q 
32 1 10 247.9380 245.5030 245.4000 # Q 
33 1 1 249.0880 244.7240 245.1400 # A 
34 1 10 250.3780 245.2450 244.9500 # Q 
35 1 8 251.4840 244.2400 244.6800 # L 
36 1 8 251.8430 243.4230 245.9300 # L 
37 1 7 253.0080 242.4840 245.6600 # K 
38 1 10 250.5610 246.6380 245.0000 # Q 
39 1 8 251.9380 247.2280 244.7300 # L 
40 1 8 252.9930 247.1070 245.8400 # L 
41 1 6 252.7250 247.9300 247.1200 # J 
42 1 7 251.8320 247.1890 248.1200 # K 
43 1 7 254.0550 248.2630 247.8100 # K 
44 2 7 364.9030 124.5080 364.2500 # K 
45 2 6 363.3950 124.2400 364.2400 # J 
46 2 7 363.1370 122.7440 364.4300 # K 
47 2 8 362.7300 124.7210 362.9400 # L 
48 2 10 362.7490 126.2210 362.7600 # Q 
49 2 1 361.8990 127.0360 363.5100 # A 
50 2 10 361.8710 128.4490 363.3900 # Q 
51 2 10 362.7650 129.0370 362.4500 # Q 
52 2 10 362.7560 130.4400 362.2800 # Q 
53 2 1 363.6620 130.9700 361.3300 # A 
54 2 10 364.5640 130.1950 360.5800 # Q 
55 2 10 364.5820 128.8090 360.7700 # Q 
56 2 3 365.5320 127.9460 359.9500 # D 
57 2 2 366.6290 128.6950 359.1700 # C 
58 2 3 366.0220 129.9460 358.5400 # D 
59 2 2 365.5030 130.9080 359.6200 # C 
60 2 8 366.6210 131.6220 360.4200 # L 
61 2 7 367.6050 132.3960 359.5500 # K 
62 2 8 367.2750 127.7530 358.1400 # L 
63 2 8 368.5380 128.3380 357.5000 # L 
64 2 8 369.2150 127.3220 356.5800 # L 
65 2 7 370.4680 127.8990 355.9400 # K 
66 2 10 363.6660 128.2200 361.6800 # Q 
67 2 1 363.6190 126.8240 361.8600 # A 
68 2 10 361.8590 131.2640 363.0400 # Q 
69 2 1 361.8110 132.6690 362.8900 # A 
70 2 10 360.9500 133.4550 363.6300 # Q 
71 2 5 360.8990 134.8090 363.4700 # H 
72 2 1 360.1080 132.8840 364.5600 # A 
73 2 10 360.0880 131.4950 364.7900 # Q 
74 2 10 360.9770 130.6780 364.0000 # Q 
75 2 10 360.9870 129.2750 364.1700 # Q 
76 2 1 360.0950 128.7410 365.1200 # A 
77 2 10 359.2180 129.5060 365.9100 # Q 
78 2 8 358.3360 128.7420 366.8800 # L 
79 2 8 357.2360 127.9460 366.1700 # L 
80 2 7 356.3160 127.2590 367.1700 # K 
81 2 10 359.2150 130.9040 365.7600 # Q 
82 2 8 358.3210 131.7560 366.6500 # L 
83 2 8 356.8170 131.7800 366.3300 # L 
84 2 6 356.4220 132.4720 365.0100 # J 
85 2 7 356.4940 131.5260 363.8100 # K 
86 2 7 354.9910 133.0150 365.1200 # K 
87 3 7 128.3870 367.8870 129.9700 # K 
88 3 6 128.1280 367.6020 128.4900 # J 
89 3 7 127.5010 368.8330 127.8300 # K 
90 3 8 127.2140 366.3780 128.2800 # L 
91 3 10 127.8400 365.0730 128.7100 # Q 
92 3 1 128.8340 364.4710 127.9400 # A 
93 3 10 129.4580 363.2480 128.3000 # Q 
94 3 10 129.0290 362.6250 129.5000 # Q 
95 3 10 129.6020 361.3900 129.8800 # Q 
96 3 1 129.1310 360.8120 131.0900 # A 
97 3 10 128.1630 361.4000 131.9100 # Q 
98 3 10 127.6090 362.6290 131.5400 # Q 
99 3 3 126.5380 363.2710 132.4100 # D 
100 3 2 126.3420 362.6580 133.8100 # C 
101 3 3 126.4000 361.1340 133.7000 # D 
102 3 2 127.7790 360.6770 133.2000 # C 
103 3 8 128.9120 360.8350 134.2400 # L 
104 3 7 128.6460 360.1230 135.5600 # K 
105 3 8 125.0210 363.1610 134.4200 # L 
106 3 8 124.8690 362.8010 135.9100 # L 
107 3 8 123.6100 363.4300 136.5000 # L 
108 3 7 123.4560 363.0740 137.9700 # K 
109 3 10 128.0200 363.2370 130.3200 # Q 
110 3 1 127.4470 364.4480 129.8900 # A 
111 3 10 130.6140 360.7740 129.0600 # Q 
112 3 1 131.2040 359.5340 129.4000 # A 
113 3 10 132.1780 358.9500 128.6200 # Q 
114 3 5 132.7380 357.7500 128.9400 # H 
115 3 1 132.6150 359.5740 127.4700 # A 
116 3 10 132.0930 360.8130 127.0500 # Q 
117 3 10 131.0640 361.4090 127.8700 # Q 
118 3 10 130.4830 362.6410 127.4900 # Q 
119 3 1 130.9590 363.2290 126.3000 # A 
120 3 10 131.9600 362.6780 125.4800 # Q 
121 3 8 132.3310 363.4660 124.2300 # L 
122 3 8 131.2310 363.4220 123.1700 # L 
123 3 7 131.6590 364.1460 121.9000 # K 
124 3 10 132.5520 361.4600 125.8600 # Q 
125 3 8 133.6850 360.8800 125.0200 # L 
126 3 8 133.3080 360.2110 123.6900 # L 
127 3 6 132.5090 358.8960 123.8000 # J 
128 3 7 131.0020 359.1360 123.9100 # K 
129 3 7 132.7760 358.0280 122.5600 # K 
130 4 7 191.4740 183.7070 303.7800 # K 
131 4 6 191.2820 183.9690 305.2700 # J 
132 4 7 192.0470 182.9170 306.0800 # K 
133 4 8 189.7940 183.9560 305.6800 # L 
134 4 10 188.9960 185.0950 305.0900 # Q 
135 4 1 189.1300 186.3900 305.5900 # A 
136 4 10 188.4070 187.4990 305.0800 # Q 
137 4 10 187.5070 187.2470 304.0000 # Q 
138 4 10 186.7440 188.3150 303.4800 # Q 
139 4 1 185.8590 188.0040 302.4200 # A 
140 4 10 185.7190 186.7260 301.8600 # Q 
141 4 10 186.4870 185.6750 302.3700 # Q 
142 4 3 186.3320 184.2740 301.8000 # D 
143 4 2 185.5420 184.1640 300.4800 # C 
144 4 3 184.3210 185.0810 300.5500 # D 
145 4 2 184.7510 186.5490 300.7000 # C 
146 4 8 185.3660 187.1540 299.4100 # L 
147 4 7 184.4660 187.0600 298.1900 # K 
148 4 8 185.1680 182.6930 300.2100 # L 
149 4 8 184.6020 182.4610 298.8100 # L 
150 4 8 184.3680 180.9730 298.5400 # L 
151 4 7 183.8050 180.7380 297.1500 # K 
152 4 10 187.3670 185.9230 303.4600 # Q 
153 4 1 188.1170 184.8800 304.0300 # A 
154 4 10 186.8830 189.6420 304.0200 # Q 
155 4 1 186.1300 190.7350 303.5300 # A 
156 4 10 186.2700 192.0090 304.0400 # Q 
157 4 5 185.5360 193.0580 303.5800 # H 
158 4 1 187.1680 192.2540 305.0600 # A 
159 4 10 187.9670 191.2330 305.6100 # Q 
160 4 10 187.8030 189.9030 305.0800 # Q 
161 4 10 188.5590 188.8300 305.6000 # Q 
162 4 1 189.4550 189.1360 306.6500 # A 
163 4 10 189.6420 190.4190 307.1900 # Q 
164 4 8 190.6530 190.5400 308.3200 # L 
165 4 8 190.1520 189.9030 309.6200 # L 
166 4 7 191.1430 190.1110 310.7600 # K 
167 4 10 188.9030 191.4920 306.6600 # Q 
168 4 8 189.1380 192.9010 307.1900 # L 
169 4 8 188.5440 193.2500 308.5700 # L 
170 4 6 187.0060 193.3150 308.6400 # J 
171 4 7 186.3730 191.9470 308.9000 # K 
172 4 7 186.5820 194.2720 309.7600 # K 
173 5 7 417.4070 416.5330 70.1700 # K 
174 5 6 417.4970 417.2620 68.8200 # J 
175 5 7 416.8520 416.4070 67.7300 # K 
176 5 8 418.9540 417.5880 68.4400 # L 
177 5 10 419.6120 418.5970 69.3500 # Q 
178 5 1 419.2780 419.9490 69.2700 # A 
179 5 10 419.8610 420.9420 70.1000 # Q 
180 5 10 420.8330 420.5100 71.0400 # Q 
181 5 10 421.4620 421.4670 71.8700 # Q 
182 5 1 422.4270 420.9800 72.7900 # A 
183 5 10 422.7660 419.6260 72.9300 # Q 
184 5 10 422.1300 418.6800 72.1200 # Q 
185 5 3 422.5020 417.2100 72.2400 # D 
186 5 2 423.3550 416.8210 73.4600 # C 
187 5 3 424.4330 417.8840 73.6700 # D 
188 5 2 423.7980 419.2470 73.9800 # C 
189 5 8 423.1600 419.3370 75.3900 # L 
190 5 7 424.1160 419.0070 76.5300 # K 
191 5 8 423.9400 415.4080 73.2600 # L 
192 5 8 424.5920 414.8450 74.5300 # L 
193 5 8 425.0410 413.3970 74.3200 # L 
194 5 7 425.6900 412.8350 75.5800 # K 
195 5 10 421.1780 419.1190 71.1600 # Q 
196 5 1 420.5560 418.2020 70.2900 # A 
197 5 10 421.1180 422.8600 71.7700 # Q 
198 5 1 421.7340 423.8490 72.5700 # A 
199 5 10 421.3960 425.1850 72.4700 # Q 
200 5 5 421.9980 426.1370 73.2400 # H 
201 5 1 420.4300 425.5950 71.5700 # A 
202 5 10 419.7580 424.6840 70.7400 # Q 
203 5 10 420.1270 423.2930 70.8400 # Q 
204 5 10 419.5050 422.3330 70.0100 # Q 
205 5 1 418.5310 422.8100 69.1000 # A 
206 5 10 418.1460 424.1560 68.9800 # Q 
207 5 8 417.0800 424.4660 67.9400 # L 
208 5 8 417.6080 424.3350 66.5100 # L 
209 5 7 416.5500 424.7310 65.4900 # K 
210 5 10 418.7510 425.1130 69.8100 # Q 
211 5 8 418.3000 426.5660 69.7400 # L 
212 5 8 418.7810 427.3980 68.5400 # L 
213 5 6 420.2910 427.7050 68.5000 # J 
214 5 7 421.0950 426.5870 67.8300 # K 
215 5 7 420.5300 429.0090 67.7200 # K 
216 6 7 302.4050 74.8330 184.2000 # K 
217 6 6 301.2880 73.7880 184.2600 # J 
218 6 7 300.0240 74.3490 183.6000 # K 
219 6 8 300.9750 73.3520 185.7000 # L 
220 6 10 302.1010 72.5950 186.3700 # Q 
221 6 1 302.3740 71.2730 186.0200 # A 
222 6 10 303.4150 70.5110 186.6000 # Q 
223 6 10 304.2050 71.1520 187.6000 # Q 
224 6 10 305.2400 70.4260 188.2300 # Q 
225 6 1 305.9880 71.1120 189.2200 # A 
226 6 10 305.7780 72.4530 189.5800 # Q 
227 6 10 304.7650 73.1740 188.9400 # Q 
228 6 3 304.5000 74.6200 189.3300 # D 
229 6 2 305.5710 75.2900 190.2100 # C 
230 6 3 306.0280 74.2980 191.2800 # D 
231 6 2 306.6850 73.0680 190.6300 # C 
232 6 8 308.0790 73.3460 190.0200 # L 
233 6 7 309.0820 73.9370 191.0000 # K 
234 6 8 305.0150 76.5980 190.8000 # L 
235 6 8 306.0880 77.4530 191.4800 # L 
236 6 8 305.5190 78.7950 191.9500 # L 
237 6 7 306.5810 79.6450 192.6200 # K 
238 6 10 303.9570 72.5210 187.9600 # Q 
239 6 1 302.8950 73.1990 187.3300 # A 
240 6 10 305.4950 69.0570 187.8700 # Q 
241 6 1 306.5120 68.2920 188.4900 # A 
242 6 10 306.7550 66.9790 188.1300 # Q 
243 6 5 307.7300 66.2420 188.7400 # H 
244 6 1 306.0080 66.3710 187.1500 # A 
245 6 10 304.9790 67.0530 186.4700 # Q 
246 6 10 304.7190 68.4180 186.8600 # Q 
247 6 10 303.6830 69.1470 186.2300 # Q 
248 6 1 302.9410 68.4730 185.2300 # A 
249 6 10 303.1680 67.1460 184.8300 # Q 
250 6 8 302.2590 66.6010 183.7400 # L 
251 6 8 300.8310 66.3580 184.2500 # L 
252 6 7 299.9620 65.7340 183.1600 # K 
253 6 10 304.2070 66.4210 185.4400 # Q 
254 6 8 304.5130 65.0040 184.9700 # L 
255 6 8 303.5540 63.8890 185.4200 # L 
256 6 6 303.5630 63.5560 186.9300 # J 
257 6 7 302.6220 64.4570 187.7300 # K 
258 6 7 303.1400 62.0960 187.1400 # K 
259 7 7 70.1450 307.2540 425.3900 # K 
260 7 6 70.3620 308.2170 424.2200 # J 
261 7 7 70.0450 309.6470 424.6600 # K 
262 7 8 69.5000 307.8480 422.9900 # L 
263 7 10 69.8850 306.5360 422.3500 # Q 
264 7 1 71.0410 306.4330 421.5800 # A 
265 7 10 71.4540 305.2300 420.9500 # Q 
266 7 10 70.6290 304.0880 421.1400 # Q 
267 7 10 70.9840 302.8710 420.5100 # Q 
268 7 1 70.1210 301.7680 420.7200 # A 
269 7 10 68.9700 301.8120 421.5200 # Q 
270 7 10 68.6300 303.0120 422.1600 # Q 
271 7 3 67.3710 303.0910 423.0100 # D 
272 7 2 66.7040 301.7480 423.3600 # C 
273 7 3 66.7160 300.8510 422.1200 # D 
274 7 2 68.1570 300.5360 421.6900 # C 
275 7 8 68.9000 299.5650 422.6400 # L 
276 7 7 68.1880 298.2370 422.8500 # K 
277 7 8 65.2840 301.9940 423.9000 # L 
278 7 8 64.6450 300.7390 424.5000 # L 
279 7 8 63.2950 301.0570 425.1500 # L 
280 7 7 62.6580 299.8130 425.7500 # K 
281 7 10 69.4430 304.1630 421.9500 # Q 
282 7 1 69.1030 305.4010 422.5200 # A 
283 7 10 72.1720 302.7890 419.7000 # Q 
284 7 1 72.5560 301.5940 419.0500 # A 
285 7 10 73.7000 301.5190 418.2800 # Q 
286 7 5 74.0620 300.3690 417.6400 # H 
287 7 1 74.5150 302.6220 418.1300 # A 
288 7 10 74.2200 303.8520 418.7500 # Q 
289 7 10 73.0150 303.9280 419.5400 # Q 
290 7 10 72.6520 305.1420 420.1600 # Q 
291 7 1 73.5170 306.2430 419.9600 # A 
292 7 10 74.6980 306.2050 419.2000 # Q 
293 7 8 75.4900 307.4970 419.1100 # L 
294 7 8 74.7900 308.5490 418.2400 # L 
295 7 7 75.6400 309.8020 418.1000 # K 
296 7 10 75.0710 304.9950 418.5900 # Q 
297 7 8 76.3810 304.9140 417.8200 # L 
298 7 8 76.4190 305.5590 416.4200 # L 
299 7 6 75.5610 304.8770 415.3400 # J 
300 7 7 74.1130 305.3700 415.3400 # K 
301 7 7 76.1660 305.1460 413.9600 # K 
302 8 7 100.8580 158.2970 152.9600 # K 
303 8 6 101.8430 157.2940 153.5600 # J 
304 8 7 102.4950 156.4740 152.4500 # K 
305 8 8 101.1610 156.3510 154.5700 # L 
306 8 10 100.6680 157.0480 155.8200 # Q 
307 8 1 101.5630 157.4690 156.8000 # A 
308 8 10 101.1600 158.1270 157.9900 # Q 
309 8 10 99.7680 158.3560 158.1700 # Q 
310 8 10 99.3140 158.9860 159.3500 # Q 
311 8 1 97.9170 159.1810 159.4700 # A 
312 8 10 96.9820 158.8120 158.4900 # Q 
313 8 10 97.4340 158.2040 157.3200 # Q 
314 8 3 96.4360 157.7700 156.2500 # D 
315 8 2 95.0000 158.3000 156.4200 # C 
316 8 3 94.6050 158.2190 157.8900 # D 
317 8 2 95.5120 159.1160 158.7500 # C 
318 8 8 95.2570 160.6310 158.5600 # L 
319 8 7 93.8180 161.0550 158.8200 # K 
320 8 8 94.0440 157.5130 155.5000 # L 
321 8 8 92.6460 158.1350 155.4100 # L 
322 8 8 91.7740 157.4000 154.3900 # L 
323 8 7 90.3860 158.0140 154.3000 # K 
324 8 10 98.8270 157.9500 157.1600 # Q 
325 8 1 99.3140 157.2940 156.0100 # A 
326 8 10 100.2510 159.3970 160.3600 # Q 
327 8 1 99.8370 160.0190 161.5600 # A 
328 8 10 100.7410 160.4150 162.5300 # Q 
329 8 5 100.3390 161.0060 163.6900 # H 
330 8 1 102.0940 160.2210 162.3400 # A 
331 8 10 102.6030 159.6170 161.1700 # Q 
332 8 10 101.6510 159.1900 160.1800 # Q 
333 8 10 102.0990 158.5550 159.0000 # Q 
334 8 1 103.4930 158.3700 158.8600 # A 
335 8 10 104.4480 158.7750 159.8100 # Q 
336 8 8 105.9010 158.4830 159.4800 # L 
337 8 8 106.2300 156.9880 159.5700 # L 
338 8 7 107.7070 156.7300 159.3200 # K 
339 8 10 104.0090 159.4200 160.9800 # Q 
340 8 8 105.0310 159.9270 161.9900 # L 
341 8 8 105.7090 158.8830 162.8900 # L 
342 8 6 104.7990 158.1940 163.9300 # J 
343 8 7 104.0730 156.9770 163.3500 # K 
344 8 7 105.6370 157.7400 165.1300 # K 
345 9 7 332.0180 389.1430 386.9800 # K 
346 9 6 333.4760 389.5930 386.8600 # J 
347 9 7 334.1060 388.9620 385.6100 # K 
348 9 8 334.3050 389.2260 388.1000 # L 
349 9 10 333.8870 389.9680 389.3500 # Q 
350 9 1 334.2100 391.3130 389.5200 # A 
351 9 10 333.8470 392.0620 390.6700 # Q 
352 9 10 333.1180 391.3820 391.6800 # Q 
353 9 10 332.7550 392.0780 392.8600 # Q 
354 9 1 332.0360 391.3480 393.8400 # A 
355 9 10 331.6530 390.0060 393.6900 # Q 
356 9 10 331.9990 389.3240 392.5200 # Q 
357 9 3 331.6200 387.8600 392.3600 # D 
358 9 2 330.6120 387.3020 393.3800 # C 
359 9 3 330.9700 387.8300 394.7700 # D 
360 9 2 330.8530 389.3610 394.8200 # C 
361 9 8 329.3970 389.8840 394.7800 # L 
362 9 7 328.5100 389.3250 395.8800 # K 
363 9 8 330.5940 385.7620 393.3100 # L 
364 9 8 329.4470 385.1380 394.1100 # L 
365 9 8 329.3910 383.6230 393.9100 # L 
366 9 7 328.2540 382.9990 394.7000 # K 
367 9 10 332.7540 390.0000 391.5200 # Q 
368 9 1 333.1650 389.3310 390.3500 # A 
369 9 10 333.1130 393.4620 393.0200 # Q 
370 9 1 332.7790 394.1910 394.1900 # A 
371 9 10 333.1210 395.5210 394.3400 # Q 
372 9 5 332.8070 396.2190 395.4700 # H 
373 9 1 333.8000 396.1860 393.3400 # A 
374 9 10 334.1700 395.5470 392.1400 # Q 
375 9 10 333.8240 394.1550 392.0000 # Q 
376 9 10 334.1880 393.4510 390.8300 # Q 
377 9 1 334.8930 394.1780 389.8400 # A 
378 9 10 335.2440 395.5350 389.9500 # Q 
379 9 8 336.0040 396.1340 388.7800 # L 
380 9 8 337.4450 395.6170 388.6900 # L 
381 9 7 338.2110 396.2930 387.5700 # K 
382 9 10 334.8710 396.2420 391.1000 # Q 
383 9 8 335.1830 397.7290 391.2100 # L 
384 9 8 336.6380 398.1260 391.5100 # L 
385 9 6 337.1610 397.7600 392.9200 # J 
386 9 7 337.7140 396.3350 392.9800 # K 
387 9 7 338.2730 398.7350 393.3200 # K 
388 10 7 453.5780 43.5160 271.3200 # K 
389 10 6 454.1850 42.2480 271.9300 # J 
390 10 7 455.4030 41.8170 271.1100 # K 
391 10 8 453.1670 41.0930 272.0000 # L 
392 10 10 452.0260 41.3440 272.9600 # Q 
393 10 1 452.2220 41.2650 274.3300 # A 
394 10 10 451.1920 41.4890 275.2800 # Q 
395 10 10 449.9030 41.8080 274.7700 # Q 
396 10 10 448.8350 42.0150 275.6800 # Q 
397 10 1 447.5730 42.3220 275.1100 # A 
398 10 10 447.3360 42.4530 273.7400 # Q 
399 10 10 448.3960 42.2640 272.8500 # Q 
400 10 3 448.1570 42.3730 271.3500 # D 
401 10 2 446.8080 42.9800 270.9200 # C 
402 10 3 445.7040 42.4170 271.8200 # D 
403 10 2 445.9320 42.8210 273.2800 # C 
404 10 8 445.6680 44.3190 273.5700 # L 
405 10 7 444.2760 44.7910 273.1800 # K 
406 10 8 446.5610 42.7060 269.4200 # L 
407 10 8 445.3690 43.4840 268.8600 # L 
408 10 8 445.2410 43.2830 267.3500 # L 
409 10 7 444.0580 44.0530 266.7800 # K 
410 10 10 449.6800 41.9170 273.3600 # Q 
411 10 1 450.7590 41.6680 272.4900 # A 
412 10 10 449.0530 41.9110 277.1000 # Q 
413 10 1 448.0090 42.0980 278.0300 # A 
414 10 10 448.2250 42.0010 279.3900 # Q 
415 10 5 447.2150 42.1730 280.2900 # H 
416 10 1 449.4840 41.7240 279.8800 # A 
417 10 10 450.5860 41.5280 279.0300 # Q 
418 10 10 450.3510 41.6140 277.6100 # Q 
419 10 10 451.4130 41.4030 276.7000 # Q 
420 10 1 452.6780 41.1100 277.2600 # A 
421 10 10 452.9440 41.0210 278.6300 # Q 
422 10 8 454.3730 40.6930 279.0300 # L 
423 10 8 454.7460 39.2390 278.7200 # L 
424 10 7 456.1500 38.9110 279.2000 # K 
425 10 10 451.8940 41.2440 279.5400 # Q 
426 10 8 452.1750 41.2180 281.0400 # L 
427 10 8 452.3700 39.8420 281.7000 # L 
428 10 6 451.1210 38.9410 281.7600 # J 
429 10 7 450.9290 38.1160 280.4900 # K 
430 10 7 451.2370 37.9810 282.9500 # K 
431 11 7 215.0400 269.7570 42.4300 # K 
432 11 6 215.4440 269.9050 40.9600 # J 
433 11 7 215.5130 268.5230 40.3000 # K 
434 11 8 216.7970 270.6260 40.8000 # L 
435 11 10 216.7680 272.0730 41.2300 # Q 
436 11 1 216.1480 273.0390 40.4300 # A 
437 11 10 216.0890 274.4120 40.7800 # Q 
438 11 10 216.7020 274.7950 42.0100 # Q 
439 11 10 216.6920 276.1580 42.3900 # Q 
440 11 1 217.3240 276.4820 43.6100 # A 
441 11 10 217.9250 275.5410 44.4600 # Q 
442 11 10 217.9180 274.1930 44.0900 # Q 
443 11 3 218.5880 273.1580 44.9800 # D 
444 11 2 218.9780 273.6330 46.4000 # C 
445 11 3 219.5750 275.0370 46.3000 # D 
446 11 2 218.5360 276.0340 45.7700 # C 
447 11 8 217.4090 276.3720 46.7700 # L 
448 11 7 217.9080 276.9060 48.1100 # K 
449 11 8 219.9410 272.6180 47.0400 # L 
450 11 8 220.1820 272.8810 48.5300 # L 
451 11 8 221.0360 271.7790 49.1600 # L 
452 11 7 221.2780 272.0380 50.6400 # K 
453 11 10 217.3290 273.8150 42.8500 # Q 
454 11 1 217.3490 272.4750 42.4200 # A 
455 11 10 216.0630 277.1430 41.5500 # Q 
456 11 1 216.0430 278.5160 41.8900 # A 
457 11 10 215.4340 279.4580 41.0800 # Q 
458 11 5 215.4240 280.7820 41.4000 # H 
459 11 1 214.8120 279.0760 39.9100 # A 
460 11 10 214.7750 277.7320 39.4900 # Q 
461 11 10 215.4270 276.7580 40.3300 # Q 
462 11 10 215.4440 275.3950 39.9500 # Q 
463 11 1 214.8030 275.0620 38.7400 # A 
464 11 10 214.1570 275.9850 37.9000 # Q 
465 11 8 213.5280 275.4260 36.6300 # L 
466 11 8 214.5790 275.0000 35.6000 # L 
467 11 7 213.9260 274.5240 34.3100 # K 
468 11 10 214.1240 277.3380 38.2800 # Q 
469 11 8 213.3720 278.3430 37.4100 # L 
470 11 8 214.0400 278.7890 36.1000 # L 
471 11 6 215.3160 279.6410 36.2500 # J 
472 11 7 216.5760 278.7860 36.4000 # K 
473 11 7 215.4830 280.5400 35.0200 # K 
474 12 7 157.1100 98.2400 444.9700 # K 
475 12 6 156.9140 97.0450 445.9000 # J 
476 12 7 156.2100 95.9120 445.1500 # K 
477 12 8 156.1040 97.4200 447.1600 # L 
478 12 10 156.8190 98.3820 448.0800 # Q 
479 12 1 157.8780 97.9510 448.8800 # A 
480 12 10 158.5860 98.8060 449.7600 # Q 
481 12 10 158.1750 100.1660 449.8100 # Q 
482 12 10 158.8340 101.0530 450.7000 # Q 
483 12 1 158.3770 102.3930 450.7100 # A 
484 12 10 157.3440 102.8820 449.9000 # Q 
485 12 10 156.7060 102.0080 449.0100 # Q 
486 12 3 155.5640 102.5090 448.1400 # D 
487 12 2 155.3800 104.0360 448.0800 # C 
488 12 3 155.5600 104.6160 449.4800 # D 
489 12 2 156.9840 104.3580 450.0000 # C 
490 12 8 158.0730 105.2070 449.3000 # L 
491 12 7 157.8280 106.7080 449.3700 # K 
492 12 8 154.0080 104.3750 447.4700 # L 
493 12 8 153.8450 105.8630 447.1400 # L 
494 12 8 152.5250 106.1300 446.4100 # L 
495 12 7 152.3600 107.6060 446.0900 # K 
496 12 10 157.1000 100.6400 448.9800 # Q 
497 12 1 156.4460 99.7180 448.1400 # A 
498 12 10 159.9120 100.5850 451.5300 # Q 
499 12 1 160.5880 101.4370 452.4300 # A 
500 12 10 161.6260 100.9840 453.2200 # Q 
501 12 5 162.2700 101.8050 454.1000 # H 
502 12 1 162.0440 99.6720 453.1400 # A 
503 12 10 161.4370 98.7510 452.2700 # Q 
504 12 10 160.3430 99.2260 451.4600 # Q 
505 12 10 159.6770 98.3440 450.5800 # Q 
506 12 1 160.1380 97.0080 450.5500 # A 
507 12 10 161.2000 96.5120 451.3200 # Q 
508 12 8 161.5410 95.0420 451.1400 # L 
509 12 8 160.4770 94.1200 451.7500 # L 
510 12 7 160.8800 92.6580 451.6300 # K 
511 12 10 161.8750 97.3890 452.1900 # Q 
512 12 8 163.0720 96.8880 452.9800 # L 
513 12 8 162.7850 96.0000 454.2100 # L 
514 12 6 162.0890 96.6910 455.4000 # J 
515 12 7 160.5650 96.7010 455.2600 # K 
516 12 7 162.4560 95.9710 456.7000 # K 
517 13 7 387.6110 330.3240 214.4500 # K 
518 13 6 387.2660 331.7940 214.2000 # J 
519 13 7 386.1110 331.8860 213.2000 # K 
520 13 8 388.4770 332.5900 213.6700 # L 
521 13 10 389.5930 332.7340 214.6800 # Q 
522 13 1 389.4720 333.6100 215.7600 # A 
523 13 10 390.4850 333.7890 216.7300 # Q 
524 13 10 391.6740 333.0230 216.5800 # Q 
525 13 10 392.7240 333.1850 217.5100 # Q 
526 13 1 393.8870 332.4030 217.3100 # A 
527 13 10 394.0380 331.4790 216.2600 # Q 
528 13 10 392.9920 331.3090 215.3500 # Q 
529 13 3 393.1450 330.3340 214.1900 # D 
530 13 2 394.3450 329.3720 214.2700 # C 
531 13 3 395.5680 330.1440 214.7700 # D 
532 13 2 395.3340 330.6830 216.1800 # C 
533 13 8 395.3370 329.5930 217.2800 # L 
534 13 7 396.6060 328.7520 217.3200 # K 
535 13 8 394.5740 328.7050 212.9000 # L 
536 13 8 395.5830 327.5540 212.9500 # L 
537 13 8 395.6810 326.8410 211.6000 # L 
538 13 7 396.6830 325.6980 211.6500 # K 
539 13 10 391.8140 332.0970 215.4900 # Q 
540 13 1 390.7610 331.9910 214.5600 # A 
541 13 10 392.5890 334.1080 218.6100 # Q 
542 13 1 393.6200 334.3070 219.5600 # A 
543 13 10 393.4830 335.1910 220.6100 # Q 
544 13 5 394.4830 335.3890 221.5100 # H 
545 13 1 392.3150 335.9080 220.7700 # A 
546 13 10 391.2310 335.7720 219.8800 # Q 
547 13 10 391.3880 334.8600 218.7800 # Q 
548 13 10 390.3430 334.6980 217.8400 # Q 
549 13 1 389.1750 335.4650 218.0500 # A 
550 13 10 388.9880 336.3600 219.1100 # Q 
551 13 8 387.6580 337.0930 219.1600 # L 
552 13 8 387.5380 338.1520 218.0600 # L 
553 13 7 386.2360 338.9290 218.1800 # K 
554 13 10 390.0180 336.5140 220.0600 # Q 
555 13 8 389.8090 337.4280 221.2600 # L 
556 13 8 389.8910 338.9440 221.0100 # L 
557 13 6 391.2820 339.4950 220.6400 # J 
558 13 7 391.5650 339.4080 219.1400 # K 
559 13 7 391.3900 340.9630 221.0800 # K 
560 14 7 280.1020 214.8990 101.1200 # K 
561 14 6 280.2350 216.1330 100.2300 # J 
562 14 7 281.6990 216.5780 100.1800 # K 
563 14 8 279.3510 217.2990 100.7100 # L 
564 14 10 277.8700 217.0280 100.6000 # Q 
565 14 1 277.2370 217.0500 99.3500 # A 
566 14 10 275.8510 216.8040 99.1800 # Q 
567 14 10 275.0940 216.5230 100.3500 # Q 
568 14 10 273.7020 216.2970 100.2400 # Q 
569 14 1 272.9980 216.0300 101.4400 # A 
570 14 10 273.5980 215.9560 102.7000 # Q 
571 14 10 274.9750 216.1650 102.8100 # Q 
572 14 3 275.6430 216.1180 104.1800 # D 
573 14 2 274.7930 215.5490 105.3300 # C 
574 14 3 273.3680 216.0920 105.2100 # D 
575 14 2 272.7160 215.6270 103.9000 # C 
576 14 8 272.3510 214.1230 103.8700 # L 
577 14 7 271.4430 213.6860 105.0200 # K 
578 14 8 275.4490 215.8850 106.6800 # L 
579 14 8 274.8070 215.1470 107.8600 # L 
580 14 8 275.5700 215.4080 109.1600 # L 
581 14 7 274.9360 214.6780 110.3300 # K 
582 14 10 275.7270 216.4730 101.6400 # Q 
583 14 1 277.1070 216.7410 101.7200 # A 
584 14 10 273.0630 216.3420 98.9500 # Q 
585 14 1 271.6730 216.1320 98.7900 # A 
586 14 10 271.0650 216.1730 97.5500 # Q 
587 14 5 269.7220 215.9800 97.4000 # H 
588 14 1 271.8090 216.4130 96.4100 # A 
589 14 10 273.1990 216.6260 96.4700 # Q 
590 14 10 273.8250 216.5990 97.7700 # Q 
591 14 10 275.2140 216.8300 97.8900 # Q 
592 14 1 275.9260 217.0830 96.7000 # A 
593 14 10 275.3500 217.1140 95.4200 # Q 
594 14 8 276.2870 217.4060 94.2600 # L 
595 14 8 276.7570 218.8650 94.2400 # L 
596 14 7 277.6250 219.1540 93.0300 # K 
597 14 10 273.9710 216.8710 95.2900 # Q 
598 14 8 273.3390 216.8340 93.9000 # L 
599 14 8 273.1050 218.1800 93.2000 # L 
600 14 6 272.0370 219.0960 93.8300 # J 
601 14 7 272.6040 219.9730 94.9400 # K 
602 14 7 271.4360 220.0060 92.7500 # K 
603 15 7 40.4930 452.4300 338.1800 # K 
604 15 6 40.2660 453.4740 337.0900 # J 
605 15 7 39.5530 454.6930 337.6800 # K 
606 15 8 39.4440 452.9090 335.9100 # L 
607 15 10 40.1620 451.8340 335.1300 # Q 
608 15 1 41.2020 452.1580 334.2600 # A 
609 15 10 41.9120 451.1940 333.5000 # Q 
610 15 10 41.5220 449.8360 333.6500 # Q 
611 15 10 42.1820 448.8390 332.9000 # Q 
612 15 1 41.7470 447.5050 333.0800 # A 
613 15 10 40.7330 447.1240 333.9800 # Q 
614 15 10 40.0930 448.1090 334.7300 # Q 
615 15 3 38.9720 447.7240 335.6900 # D 
616 15 2 38.8130 446.2200 335.9700 # C 
617 15 3 38.9830 445.4450 334.6700 # D 
618 15 2 40.3950 445.6450 334.0900 # C 
619 15 8 41.5070 444.9210 334.8900 # L 
620 15 7 41.2860 443.4230 335.0500 # K 
621 15 8 37.4550 445.9550 336.6500 # L 
622 15 8 37.3200 444.5280 337.1900 # L 
623 15 8 36.0150 444.3510 337.9700 # L 
624 15 7 35.8780 442.9360 338.5100 # K 
625 15 10 40.4660 449.4720 334.5600 # Q 
626 15 1 39.8090 450.4970 335.2700 # A 
627 15 10 43.2420 449.1960 331.9900 # Q 
628 15 1 43.9190 448.2310 331.2100 # A 
629 15 10 44.9380 448.5780 330.3400 # Q 
630 15 5 45.5830 447.6470 329.5800 # H 
631 15 1 45.3350 449.8940 330.2200 # A 
632 15 10 44.7260 450.9230 330.9700 # Q 
633 15 10 43.6510 450.5560 331.8500 # Q 
634 15 10 42.9840 451.5480 332.6100 # Q 
635 15 1 43.4230 452.8810 332.4400 # A 
636 15 10 44.4670 453.2740 331.5800 # Q 
637 15 8 44.7870 454.7580 331.5400 # L 
638 15 8 43.7000 455.5670 330.8200 # L 
639 15 7 44.0820 457.0360 330.7200 # K 
640 15 10 45.1440 452.2890 330.8400 # Q 
641 15 8 46.3220 452.6850 329.9600 # L 
642 15 8 46.0040 453.3820 328.6300 # L 
643 15 6 45.3020 452.5160 327.5600 # J 
644 15 7 43.7810 452.5050 327.7300 # K 
645 15 7 45.6400 453.0440 326.1600 # K 
646 16 7 61.1270 233.6900 407.0500 # K 
647 16 6 60.0580 234.7640 407.2600 # J 
648 16 7 60.7010 236.0200 407.8500 # K 
649 16 8 58.9210 234.2770 408.1800 # L 
650 16 10 58.0890 233.1670 407.5800 # Q 
651 16 1 57.1690 233.4340 406.5700 # A 
652 16 10 56.3600 232.4360 405.9700 # Q 
653 16 10 56.5150 231.1050 406.4400 # Q 
654 16 10 55.7120 230.0780 405.8900 # Q 
655 16 1 55.9050 228.7740 406.4100 # A 
656 16 10 56.8460 228.4500 407.4000 # Q 
657 16 10 57.6500 229.4630 407.9300 # Q 
658 16 3 58.6570 229.1410 409.0200 # D 
659 16 2 58.9320 227.6460 409.2700 # C 
660 16 3 57.6080 226.8830 409.2200 # D 
661 16 2 56.9640 226.9950 407.8300 # C 
662 16 8 57.6910 226.1840 406.7300 # L 
663 16 7 57.8380 224.7020 407.0500 # K 
664 16 8 59.6800 227.4650 410.6000 # L 
665 16 8 60.2110 226.0420 410.8100 # L 
666 16 8 61.0540 225.9420 412.0800 # L 
667 16 7 61.5820 224.5310 412.2900 # K 
668 16 10 57.4730 230.8010 407.4700 # Q 
669 16 1 58.2270 231.8560 408.0200 # A 
670 16 10 54.7550 230.3760 404.8600 # Q 
671 16 1 53.9250 229.3790 404.2900 # A 
672 16 10 53.0100 229.6700 403.3000 # Q 
673 16 5 52.2040 228.7100 402.7600 # H 
674 16 1 52.8860 230.9570 402.8200 # A 
675 16 10 53.6730 232.0140 403.3200 # Q 
676 16 10 54.6130 231.7070 404.3600 # Q 
677 16 10 55.4150 232.7300 404.9200 # Q 
678 16 1 55.2380 234.0320 404.4000 # A 
679 16 10 54.3330 234.3660 403.3800 # Q 
680 16 8 54.2920 235.8250 402.9600 # L 
681 16 8 53.6450 236.7190 404.0200 # L 
682 16 7 53.5380 238.1590 403.5500 # K 
683 16 10 53.5440 233.3490 402.8100 # Q 
684 16 8 52.6070 233.6780 401.6600 # L 
685 16 8 51.3010 234.4170 402.0000 # L 
686 16 6 50.2650 233.6190 402.8100 # J 
687 16 7 50.5100 233.7100 404.3200 # K 
688 16 7 48.8550 234.1450 402.5100 # K 
689 17 7 289.8150 462.0410 177.8800 # K 
690 17 6 288.3350 462.3240 177.6100 # J 
691 17 7 287.4710 461.5820 178.6300 # K 
692 17 8 287.9230 461.9130 176.1800 # L 
693 17 10 288.5720 462.7420 175.1000 # Q 
694 17 1 288.1530 464.0490 174.8500 # A 
695 17 10 288.7240 464.8740 173.8500 # Q 
696 17 10 289.7730 464.3160 173.0700 # Q 
697 17 10 290.3570 465.0910 172.0400 # Q 
698 17 1 291.3920 464.4800 171.2900 # A 
699 17 10 291.8750 463.1840 171.5300 # Q 
700 17 10 291.3070 462.4260 172.5600 # Q 
701 17 3 291.7950 461.0080 172.8100 # D 
702 17 2 293.0990 460.6020 172.1000 # C 
703 17 3 293.0710 461.1370 170.6700 # D 
704 17 2 293.0170 462.6720 170.6600 # C 
705 17 8 294.3400 463.3510 171.1000 # L 
706 17 7 295.5500 462.9340 170.2700 # K 
707 17 8 293.2760 459.0720 172.1600 # L 
708 17 8 294.6610 458.6070 171.7000 # L 
709 17 8 294.8360 457.1010 171.9000 # L 
710 17 7 296.2090 456.6360 171.4500 # K 
711 17 10 290.2370 462.9770 173.3200 # Q 
712 17 1 289.6060 462.2250 174.3300 # A 
713 17 10 289.8990 466.4320 171.7900 # Q 
714 17 1 290.4480 467.2350 170.7700 # A 
715 17 10 290.0070 468.5240 170.5300 # Q 
716 17 5 290.5320 469.2920 169.5400 # H 
717 17 1 289.0110 469.0730 171.3100 # A 
718 17 10 288.4090 468.3540 172.3600 # Q 
719 17 10 288.8620 467.0040 172.5900 # Q 
720 17 10 288.2790 466.2220 173.6100 # Q 
721 17 1 287.2550 466.8310 174.3700 # A 
722 17 10 286.7910 468.1430 174.1800 # Q 
723 17 8 285.6790 468.6120 175.1100 # L 
724 17 8 284.3390 467.9360 174.7900 # L 
725 17 7 283.2240 468.4830 175.6700 # K 
726 17 10 287.3780 468.9290 173.1800 # Q 
727 17 8 286.9360 470.3760 173.0000 # L 
728 17 8 285.5810 470.6210 172.3100 # L 
729 17 6 285.5010 470.2510 170.8200 # J 
730 17 7 285.1560 468.7770 170.6000 # K 
731 17 7 284.4350 471.1120 170.1300 # K 
732 18 7 402.4240 117.2970 53.4000 # K 
733 18 6 401.7650 116.9080 54.7300 # J 
734 18 7 400.4240 117.6330 54.8700 # K 
735 18 8 402.6620 117.2340 55.9400 # L 
736 18 10 403.9240 116.4060 56.0000 # Q 
737 18 1 403.8790 115.0660 56.3800 # A 