LAMMPS data file

4300 atoms
4800 bonds
7500 angles

8 atom types
12 bond types
25 angle types

# Cell dimensions: 456.908, 456.908, 456.908
0.000000	456.908 xlo xhi
0.000000	456.908 ylo yhi
0.000000	456.908 zlo zhi

Masses

1 13.01864 # A
2 13.01864 # C
3 14.02658 # D
4 17.00734 # H
5 13.01864 # J
6 15.03452 # K
7 14.02658 # L
8 12.0107 # Q

Atoms

1 1 6 230.4660 223.2890 229.2000 # K 
2 1 5 229.5120 223.5400 230.3700 # J 
3 1 6 229.7220 222.4680 231.4400 # K 
4 1 7 229.7010 224.9390 230.9900 # L 
5 1 8 229.4120 226.0770 230.0400 # Q 
6 1 1 228.1160 226.3270 229.5900 # A 
7 1 8 227.7890 227.3680 228.6800 # Q 
8 1 8 228.8610 228.1740 228.2100 # Q 
9 1 8 228.5920 229.2110 227.2900 # Q 
10 1 1 229.6960 229.9880 226.8600 # A 
11 1 8 231.0120 229.7940 227.3100 # Q 
12 1 8 231.2730 228.7840 228.2300 # Q 
13 1 3 232.6660 228.6370 228.8300 # D 
14 1 2 233.7790 229.5580 228.2800 # C 
15 1 3 233.1940 230.8970 227.8300 # D 
16 1 2 232.1020 230.6990 226.7600 # C 
17 1 7 232.6990 230.1690 225.4400 # L 
18 1 6 231.7650 230.2970 224.2400 # K 
19 1 7 234.8800 229.7230 229.3500 # L 
20 1 7 236.0880 230.5390 228.8800 # L 
21 1 7 237.1880 230.5690 229.9500 # L 
22 1 6 238.3630 231.4350 229.5200 # K 
23 1 8 230.2040 227.9530 228.6800 # Q 
24 1 1 230.4340 226.9010 229.5800 # A 
25 1 8 227.2500 229.4450 226.8300 # Q 
26 1 1 226.9470 230.4550 225.8900 # A 
27 1 8 225.6530 230.6890 225.4600 # Q 
28 1 4 225.3620 231.6620 224.5500 # H 
29 1 1 224.6090 229.9330 225.9500 # A 
30 1 8 224.8130 228.9050 226.8900 # Q 
31 1 8 226.1660 228.6580 227.3200 # Q 
32 1 8 226.4410 227.6260 228.2500 # Q 
33 1 1 225.3360 226.8840 228.7200 # A 
34 1 8 224.0010 227.1170 228.3500 # Q 
35 1 7 222.9510 226.2350 229.0000 # L 
36 1 7 222.7730 226.5450 230.4900 # L 
37 1 6 221.6550 225.7150 231.1100 # K 
38 1 8 223.7250 228.1330 227.4200 # Q 
39 1 7 222.2860 228.3860 226.9800 # L 
40 1 7 221.3930 229.1640 227.9700 # L 
41 1 5 221.7850 230.6380 228.1900 # J 
42 1 6 222.7730 230.8130 229.3500 # K 
43 1 6 220.5360 231.4790 228.4800 # K 
44 2 6 331.8100 123.3680 337.6800 # K 
45 2 5 332.6210 124.2620 336.7400 # J 
46 2 6 332.0580 125.6860 336.7700 # K 
47 2 7 334.1190 124.2890 337.1100 # L 
48 2 8 334.8020 122.9470 337.0000 # Q 
49 2 1 335.0000 122.3340 335.7700 # A 
50 2 8 335.6160 121.0660 335.6100 # Q 
51 2 8 336.0340 120.4030 336.8000 # Q 
52 2 8 336.6340 119.1270 336.7000 # Q 
53 2 1 337.0390 118.5180 337.9100 # A 
54 2 8 336.8880 119.1040 339.1800 # Q 
55 2 8 336.3140 120.3740 339.2700 # Q 
56 2 3 336.2600 121.0890 340.6100 # D 
57 2 2 336.7460 120.3150 341.8600 # C 
58 2 3 337.8450 119.3200 341.4700 # D 
59 2 2 337.3630 118.3370 340.3900 # C 
60 2 7 336.2780 117.3830 340.9500 # L 
61 2 6 336.0200 116.1620 340.0700 # K 
62 2 7 337.1990 121.3150 342.9400 # L 
63 2 7 337.6080 120.6560 344.2600 # L 
64 2 7 337.9370 121.7070 345.3300 # L 
65 2 6 338.4120 121.0650 346.6200 # K 
66 2 8 335.8640 121.0230 338.0800 # Q 
67 2 1 335.2490 122.2880 338.1400 # A 
68 2 8 336.8170 118.5050 335.4200 # Q 
69 2 1 337.3890 117.2190 335.2800 # A 
70 2 8 337.5790 116.6320 334.0400 # Q 
71 2 4 338.1290 115.3920 333.9100 # H 
72 2 1 337.2130 117.2970 332.8900 # A 
73 2 8 336.6360 118.5810 332.9300 # Q 
74 2 8 336.4280 119.1800 334.2200 # Q 
75 2 8 335.8320 120.4580 334.3200 # Q 
76 2 1 335.4780 121.0970 333.1100 # A 
77 2 8 335.6950 120.5580 331.8300 # Q 
78 2 7 335.2810 121.4220 330.6600 # L 
79 2 7 336.1860 122.6490 330.4800 # L 
80 2 6 335.8100 123.4480 329.2500 # K 
81 2 8 336.2740 119.2800 331.7300 # Q 
82 2 7 336.4960 118.6680 330.3500 # L 
83 2 7 337.7030 119.1900 329.5500 # L 
84 2 5 339.0850 118.8390 330.1300 # J 
85 2 6 339.5950 119.9060 331.1100 # K 
86 2 6 340.1110 118.6710 329.0100 # K 
87 3 6 124.7840 332.8920 120.9200 # K 
88 3 5 123.5560 332.1190 121.4100 # J 
89 3 6 124.0010 330.8440 122.1300 # K 
90 3 7 122.6680 332.9630 122.3500 # L 
91 3 8 122.0850 334.1950 121.7000 # Q 
92 3 1 121.1220 334.0930 120.7000 # A 
93 3 8 120.5540 335.2140 120.0400 # Q 
94 3 8 121.0200 336.4970 120.4300 # Q 
95 3 8 120.5020 337.6470 119.7900 # Q 
96 3 1 120.9940 338.8980 120.2400 # A 
97 3 8 121.9410 339.0560 121.2600 # Q 
98 3 8 122.4360 337.9210 121.9000 # Q 
99 3 3 123.3610 338.0680 123.1000 # D 
100 3 2 123.8130 339.4940 123.4900 # C 
101 3 3 122.7340 340.5170 123.1300 # D 
102 3 2 122.3850 340.4580 121.6300 # C 
103 3 7 123.5650 340.9490 120.7600 # L 
104 3 6 123.1820 341.2710 119.3200 # K 
105 3 7 124.1870 339.5280 124.9800 # L 
106 3 7 124.7480 340.8750 125.4500 # L 
107 3 7 125.2030 340.8080 126.9200 # L 
108 3 6 125.6960 342.1580 127.4100 # K 
109 3 8 121.9950 336.6330 121.4800 # Q 
110 3 1 122.4970 335.4640 122.0900 # A 
111 3 8 119.5190 337.5190 118.7500 # Q 
112 3 1 118.9980 338.6440 118.0700 # A 
113 3 8 118.0410 338.5190 117.0800 # Q 
114 3 4 117.5400 339.6040 116.4300 # H 
115 3 1 117.5580 337.2750 116.7300 # A 
116 3 8 118.0160 336.0980 117.3500 # Q 
117 3 8 119.0260 336.2360 118.3700 # Q 
118 3 8 119.5440 335.0900 119.0200 # Q 
119 3 1 119.0150 333.8410 118.6200 # A 
120 3 8 118.0090 333.6710 117.6600 # Q 
121 3 7 117.5450 332.2460 117.4100 # L 
122 3 7 116.7520 331.6710 118.5900 # L 
123 3 6 116.2210 330.2800 118.2700 # K 
124 3 8 117.5010 334.8070 117.0000 # Q 
125 3 7 116.4260 334.6410 115.9300 # L 
126 3 7 114.9900 334.3910 116.4300 # L 
127 3 5 114.3360 335.5710 117.1800 # J 
128 3 6 114.5930 335.5250 118.6800 # K 
129 3 6 112.8220 335.5740 116.9400 # K 
130 4 6 170.1750 177.9740 283.1900 # K 
131 4 5 169.6670 176.5940 283.6200 # J 
132 4 6 168.1420 176.6260 283.7500 # K 
133 4 7 170.0770 175.4880 282.6200 # L 
134 4 8 171.5690 175.2980 282.4900 # Q 
135 4 1 172.3210 174.7850 283.5500 # A 
136 4 8 173.7270 174.6040 283.4900 # Q 
137 4 8 174.3780 174.9850 282.2900 # Q 
138 4 8 175.7810 174.8460 282.1900 # Q 
139 4 1 176.3750 175.2320 280.9600 # A 
140 4 8 175.6600 175.7280 279.8600 # Q 
141 4 8 174.2720 175.8450 279.9600 # Q 
142 4 3 173.4580 176.2530 278.7400 # D 
143 4 2 174.2300 176.6380 277.4600 # C 
144 4 3 175.5490 175.8650 277.3700 # D 
145 4 2 176.4240 176.1090 278.6100 # C 
146 4 7 176.9380 177.5680 278.6600 # L 
147 4 6 178.0910 177.7900 279.6300 # K 
148 4 7 173.3280 176.4150 276.2200 # L 
149 4 7 173.9610 176.8620 274.9000 # L 
150 4 7 172.9750 176.7190 273.7400 # L 
151 4 6 173.6140 177.0930 272.4100 # K 
152 4 8 173.6240 175.4960 281.1800 # Q 
153 4 1 172.2290 175.6330 281.3200 # A 
154 4 8 176.5410 174.3270 283.2900 # Q 
155 4 1 177.9490 174.1970 283.2400 # A 
156 4 8 178.6740 173.6820 284.3000 # Q 
157 4 4 180.0310 173.5590 284.2400 # H 
158 4 1 178.0340 173.2710 285.4500 # A 
159 4 8 176.6370 173.3600 285.5900 # Q 
160 4 8 175.8890 173.9130 284.4900 # Q 
161 4 8 174.4850 174.0510 284.5800 # Q 
162 4 1 173.8790 173.6130 285.7800 # A 
163 4 8 174.5710 173.0400 286.8600 # Q 
164 4 7 173.7310 172.5940 288.0500 # L 
165 4 7 172.8680 171.3680 287.7200 # L 
166 4 6 172.1060 170.8840 288.9500 # K 
167 4 8 175.9700 172.9150 286.7800 # Q 
168 4 7 176.7420 172.3190 287.9500 # L 
169 4 7 176.6980 170.7860 288.1000 # L 
170 4 5 177.4080 169.9950 286.9900 # J 
171 4 6 176.4720 169.6540 285.8200 # K 
172 4 6 177.9890 168.6930 287.5500 # K 
173 5 6 390.3450 385.3210 64.1900 # K 
174 5 5 389.3060 385.2890 65.3100 # J 
175 5 6 388.9030 383.8400 65.6000 # K 
176 5 7 389.8210 385.9520 66.6000 # L 
177 5 8 390.1480 387.4180 66.4600 # Q 
178 5 1 389.1420 388.3600 66.2400 # A 
179 5 8 389.3920 389.7460 66.0800 # Q 
180 5 8 390.7480 390.1680 66.1300 # Q 
181 5 8 391.0520 391.5360 65.9400 # Q 
182 5 1 392.4190 391.9000 66.0100 # A 
183 5 8 393.4630 390.9960 66.2500 # Q 
184 5 8 393.1600 389.6480 66.4500 # Q 
185 5 3 394.2560 388.6690 66.8400 # D 
186 5 2 395.7060 389.2000 66.8900 # C 
187 5 3 395.7230 390.6830 67.2700 # D 
188 5 2 394.8850 391.5220 66.2900 # C 
189 5 7 395.5360 391.5660 64.8900 # L 
190 5 6 394.9820 392.6580 63.9800 # K 
191 5 7 396.5400 388.3290 67.8600 # L 
192 5 7 398.0260 388.7050 67.9100 # L 
193 5 7 398.8140 387.7350 68.7900 # L 
194 5 6 400.2760 388.1390 68.9000 # K 
195 5 8 391.8020 389.2210 66.3700 # Q 
196 5 1 391.4610 387.8640 66.5300 # A 
197 5 8 390.0020 392.4900 65.7100 # Q 
198 5 1 390.2700 393.8630 65.5000 # A 
199 5 8 389.2570 394.7800 65.2900 # Q 
200 5 4 389.5170 396.1030 65.0900 # H 
201 5 1 387.9390 394.3750 65.2900 # A 
202 5 8 387.5740 393.0300 65.4900 # Q 
203 5 8 388.6370 392.0770 65.6900 # Q 
204 5 8 388.3380 390.7080 65.8800 # Q 
205 5 1 386.9720 390.3460 65.8700 # A 
206 5 8 385.9090 391.2510 65.7100 # Q 
207 5 7 384.5080 390.6680 65.7700 # L 
208 5 7 384.1300 390.2030 67.1900 # L 
209 5 6 382.6930 389.7090 67.2400 # K 
210 5 8 386.2020 392.6120 65.5100 # Q 
211 5 7 385.0640 393.6060 65.3100 # L 
212 5 7 384.3000 394.0430 66.5800 # L 
213 5 5 385.1120 394.8850 67.5800 # J 
214 5 6 385.8270 394.0230 68.6200 # K 
215 5 6 384.1920 395.8730 68.3100 # K 
216 6 6 287.9540 67.3750 174.1000 # K 
217 6 5 287.4600 68.2630 175.2500 # J 
218 6 6 288.5480 69.2750 175.6200 # K 
219 6 7 286.1580 69.0080 174.8900 # L 
220 6 8 284.9860 68.1000 174.6100 # Q 
221 6 1 284.4050 67.3410 175.6300 # A 
222 6 8 283.3160 66.4560 175.4200 # Q 
223 6 8 282.8190 66.3490 174.0900 # Q 
224 6 8 281.7490 65.4640 173.8200 # Q 
225 6 1 281.2890 65.4060 172.4800 # A 
226 6 8 281.8210 66.1670 171.4300 # Q 
227 6 8 282.8640 67.0560 171.7000 # Q 
228 6 3 283.3690 67.9910 170.6100 # D 
229 6 2 282.7730 67.8300 169.2000 # C 
230 6 3 281.3280 67.3300 169.2800 # D 
231 6 2 281.2350 66.0020 170.0500 # C 
232 6 7 281.9040 64.8500 169.2600 # L 
233 6 6 281.5370 63.4580 169.7600 # K 
234 6 7 282.9010 69.1630 168.4300 # L 
235 6 7 282.4300 69.0890 166.9700 # L 
236 6 7 282.6890 70.4090 166.2400 # L 
237 6 6 282.1620 70.3710 164.8100 # K 
238 6 8 283.3850 67.1370 173.0300 # Q 
239 6 1 284.4590 67.9960 173.3300 # A 
240 6 8 281.1730 64.6800 174.8800 # Q 
241 6 1 280.1190 63.7660 174.6500 # A 
242 6 8 279.5560 63.0260 175.6700 # Q 
243 6 4 278.5410 62.1440 175.4400 # H 
244 6 1 280.0100 63.1660 176.9600 # A 
245 6 8 281.0550 64.0510 177.2900 # Q 
246 6 8 281.6470 64.8070 176.2200 # Q 
247 6 8 282.7150 65.6970 176.4800 # Q 
248 6 1 283.1410 65.8040 177.8200 # A 
249 6 8 282.5660 65.1070 178.9000 # Q 
250 6 7 283.1410 65.3930 180.2800 # L 
251 6 7 282.7930 66.8010 180.7800 # L 
252 6 6 283.3010 67.0320 182.1900 # K 
253 6 8 281.5140 64.2100 178.6400 # Q 
254 6 7 280.8930 63.4270 179.7900 # L 
255 6 7 279.9080 64.1920 180.7000 # L 
256 6 5 278.5870 64.6140 180.0200 # J 
257 6 6 278.6760 66.0010 179.3800 # K 
258 6 6 277.4480 64.6190 181.0500 # K 
259 7 6 63.3680 283.6740 394.8900 # K 
260 7 5 63.8130 282.2220 395.0800 # J 
261 7 6 62.9900 281.5710 396.1900 # K 
262 7 7 63.6760 281.3970 393.7800 # L 
263 7 8 64.5340 281.8920 392.6400 # Q 
264 7 1 65.9240 281.7910 392.6900 # A 
265 7 8 66.7790 282.2570 391.6600 # Q 
266 7 8 66.1620 282.8650 390.5400 # Q 
267 7 8 66.9710 283.3660 389.4900 # Q 
268 7 1 66.3010 283.9520 388.3900 # A 
269 7 8 64.9070 284.0540 388.2800 # Q 
270 7 8 64.1080 283.5390 389.3000 # Q 
271 7 3 62.5940 283.5140 389.1500 # D 
272 7 2 61.9920 284.1790 387.8900 # C 
273 7 3 62.9610 284.0760 386.7100 # D 
274 7 2 64.3210 284.7110 387.0500 # C 
275 7 7 64.2020 286.2460 387.2000 # L 
276 7 6 65.5380 286.9800 387.1600 # K 
277 7 7 60.6150 283.5500 387.5900 # L 
278 7 7 59.8780 284.2070 386.4200 # L 
279 7 7 58.4770 283.6140 386.2400 # L 
280 7 6 57.7630 284.2080 385.0400 # K 
281 7 8 64.7300 282.9610 390.4500 # Q 
282 7 1 63.9580 282.4630 391.5200 # A 
283 7 8 68.4030 283.2650 389.5700 # Q 
284 7 1 69.2460 283.7780 388.5600 # A 
285 7 8 70.6220 283.6630 388.6200 # Q 
286 7 4 71.4330 284.1590 387.6500 # H 
287 7 1 71.2170 283.0330 389.7000 # A 
288 7 8 70.4600 282.4900 390.7500 # Q 
289 7 8 69.0270 282.6270 390.6800 # Q 
290 7 8 68.2120 282.1240 391.7200 # Q 
291 7 1 68.8710 281.4850 392.8000 # A 
292 7 8 70.2620 281.3050 392.8800 # Q 
293 7 7 70.7720 280.5540 394.1000 # L 
294 7 7 70.4060 279.0650 394.0700 # L 
295 7 6 71.0050 278.3170 395.2500 # K 
296 7 8 71.0780 281.8180 391.8600 # Q 
297 7 7 72.5900 281.6540 391.9500 # L 
298 7 7 73.1570 280.2670 391.5900 # L 
299 7 5 73.0100 279.8550 390.1100 # J 
300 7 6 71.7030 279.1070 389.8400 # K 
301 7 6 74.1830 278.9620 389.6900 # K 
302 8 6 97.8220 147.2480 150.9900 # K 
303 8 5 97.6050 145.8140 150.5000 # J 
304 8 6 98.3950 144.8440 151.3800 # K 
305 8 7 96.1150 145.4170 150.5000 # L 
306 8 8 95.2580 146.2450 149.5700 # Q 
307 8 1 95.4000 146.1530 148.1900 # A 
308 8 8 94.6380 146.9210 147.2700 # Q 
309 8 8 93.6960 147.8320 147.8200 # Q 
310 8 8 92.9260 148.6370 146.9500 # Q 
311 8 1 91.9970 149.5190 147.5500 # A 
312 8 8 91.7970 149.6290 148.9300 # Q 
313 8 8 92.5430 148.8180 149.7900 # Q 
314 8 3 92.2530 148.8190 151.2900 # D 
315 8 2 91.2040 149.8240 151.8100 # C 
316 8 3 90.1390 150.0960 150.7500 # D 
317 8 2 90.7690 150.6200 149.4400 # C 
318 8 7 91.3650 152.0350 149.6400 # L 
319 8 6 91.6680 152.7660 148.3300 # K 
320 8 7 90.6030 149.2970 153.1300 # L 
321 8 7 89.6200 150.2670 153.8000 # L 
322 8 7 89.1490 149.7340 155.1500 # L 
323 8 6 88.1200 150.6540 155.7900 # K 
324 8 8 93.5120 147.9300 149.2400 # Q 
325 8 1 94.3070 147.1220 150.0800 # A 
326 8 8 93.0970 148.5390 145.5200 # Q 
327 8 1 92.3640 149.3460 144.6200 # A 
328 8 8 92.5190 149.2350 143.2600 # Q 
329 8 4 91.8130 150.0150 142.3900 # H 
330 8 1 93.4020 148.3190 142.7200 # A 
331 8 8 94.1750 147.4710 143.5400 # Q 
332 8 8 94.0200 147.6030 144.9700 # Q 
333 8 8 94.7830 146.7970 145.8400 # Q 
334 8 1 95.6710 145.8740 145.2500 # A 
335 8 8 95.8260 145.6950 143.8600 # Q 
336 8 7 96.8030 144.6190 143.4200 # L 
337 8 7 96.2910 143.2050 143.7200 # L 
338 8 6 97.2420 142.1430 143.1900 # K 
339 8 8 95.0790 146.5050 142.9900 # Q 
340 8 7 95.2500 146.3440 141.4800 # L 
341 8 7 94.5460 145.1380 140.8300 # L 
342 8 5 93.0060 145.1900 140.8400 # J 
343 8 6 92.4070 144.5400 142.0900 # K 
344 8 6 92.4450 144.4820 139.6000 # K 
345 9 6 308.7680 359.4790 359.5100 # K 
346 9 5 307.5230 359.4050 360.4000 # J 
347 9 6 306.7610 358.1090 360.1100 # K 
348 9 7 307.8690 359.4790 361.9000 # L 
349 9 8 308.5310 360.7700 362.3200 # Q 
350 9 1 307.8290 361.9740 362.3100 # A 
351 9 8 308.4040 363.2190 362.6700 # Q 
352 9 8 309.7740 363.2110 363.0500 # Q 
353 9 8 310.4010 364.4290 363.3900 # Q 
354 9 1 311.7640 364.3590 363.7700 # A 
355 9 8 312.5060 363.1710 363.8300 # Q 
356 9 8 311.8800 361.9660 363.5000 # Q 
357 9 3 312.6210 360.6490 363.6800 # D 
358 9 2 314.1030 360.7140 364.1100 # C 
359 9 3 314.3580 361.9490 364.9800 # D 
360 9 2 313.9620 363.2410 364.2400 # C 
361 9 7 314.9030 363.5190 363.0500 # L 
362 9 6 314.8170 364.9410 362.5100 # K 
363 9 7 314.4920 359.3990 364.8200 # L 
364 9 7 315.9740 359.3130 365.2000 # L 
365 9 7 316.3150 357.9430 365.7900 # L 
366 9 6 317.7670 357.8700 366.2400 # K 
367 9 8 310.5160 361.9800 363.0900 # Q 
368 9 1 309.8600 360.7890 362.7200 # A 
369 9 8 309.6640 365.6620 363.3600 # Q 
370 9 1 310.2640 366.9030 363.6800 # A 
371 9 8 309.5470 368.0840 363.6600 # Q 
372 9 4 310.1280 369.2800 363.9700 # H 
373 9 1 308.2060 368.0840 363.3400 # A 
374 9 8 307.5220 366.8980 363.0100 # Q 
375 9 8 308.2800 365.6720 363.0100 # Q 
376 9 8 307.6570 364.4500 362.6700 # Q 
377 9 1 306.2820 364.5040 362.3500 # A 
378 9 8 305.5040 365.6740 362.3700 # Q 
379 9 7 304.0320 365.5140 362.0300 # L 
380 9 7 303.2570 364.7740 363.1300 # L 
381 9 6 301.7700 364.7070 362.8100 # K 
382 9 8 306.1240 366.8940 362.6900 # Q 
383 9 7 305.3030 368.1780 362.7000 # L 
384 9 7 304.3900 368.4130 363.9100 # L 
385 9 5 305.1210 368.6560 365.2500 # J 
386 9 6 305.3820 367.3580 366.0200 # K 
387 9 6 304.3010 369.5960 366.1400 # K 
388 10 6 417.3000 43.2110 251.2700 # K 
389 10 5 415.9260 42.5370 251.2600 # J 
390 10 6 415.1910 42.8690 249.9600 # K 
391 10 7 416.0250 41.0070 251.4300 # L 
392 10 8 416.6390 40.5670 252.7400 # Q 
393 10 1 415.9760 40.7660 253.9500 # A 
394 10 8 416.5130 40.3920 255.2000 # Q 
395 10 8 417.8020 39.7950 255.2000 # Q 
396 10 8 418.3930 39.4240 256.4300 # Q 
397 10 1 419.6730 38.8250 256.3700 # A 
398 10 8 420.3700 38.5780 255.1800 # Q 
399 10 8 419.7770 38.9260 253.9600 # Q 
400 10 3 420.4500 38.5490 252.6500 # D 
401 10 2 421.8430 37.8870 252.7200 # C 
402 10 3 421.9820 37.0670 254.0100 # D 
403 10 2 421.7400 37.9330 255.2600 # C 
404 10 7 422.8690 38.9730 255.4500 # L 
405 10 6 422.9040 39.6070 256.8300 # K 
406 10 7 422.0810 37.0460 251.4500 # L 
407 10 7 423.4800 36.4230 251.3700 # L 
408 10 7 423.6880 35.6990 250.0400 # L 
409 10 6 425.0460 35.0170 249.9800 # K 
410 10 8 418.4990 39.5560 253.9700 # Q 
411 10 1 417.8850 39.9530 252.7600 # A 
412 10 8 417.6980 39.6510 257.6700 # Q 
413 10 1 418.2670 39.3160 258.9200 # A 
414 10 8 417.5890 39.5200 260.1100 # Q 
415 10 4 418.1400 39.1980 261.3100 # H 
416 10 1 416.3190 40.0580 260.1000 # A 
417 10 8 415.6700 40.4220 258.9100 # Q 
418 10 8 416.3900 40.2210 257.6700 # Q 
419 10 8 415.8030 40.5860 256.4400 # Q 
420 10 1 414.5000 41.1310 256.4900 # A 
421 10 8 413.7570 41.3120 257.6700 # Q 
422 10 7 412.3560 41.8750 257.5100 # L 
423 10 7 411.3960 40.8760 256.8500 # L 
424 10 6 409.9800 41.4270 256.7800 # K 
425 10 8 414.3430 40.9640 258.9000 # Q 
426 10 7 413.5620 41.1740 260.1900 # L 
427 10 7 412.4690 40.1380 260.5200 # L 
428 10 5 412.9790 38.7190 260.8300 # J 
429 10 6 413.0810 37.8410 259.5800 # K 
430 10 6 412.0460 38.0350 261.8400 # K 
431 11 6 203.7700 253.3570 34.8400 # K 
432 11 5 203.9230 252.2730 35.9100 # J 
433 11 6 204.9150 251.2100 35.4300 # K 
434 11 7 204.3950 252.8460 37.2700 # L 
435 11 8 203.4330 253.8290 37.8900 # Q 
436 11 1 202.1920 253.4140 38.3700 # A 
437 11 8 201.2420 254.2960 38.9400 # Q 
438 11 8 201.5940 255.6710 39.0100 # Q 
439 11 8 200.6720 256.5940 39.5500 # Q 
440 11 1 201.0800 257.9490 39.6000 # A 
441 11 8 202.3250 258.4130 39.1500 # Q 
442 11 8 203.2430 257.4960 38.6400 # Q 
443 11 3 204.6490 257.9490 38.2700 # D 
444 11 2 204.9670 259.4560 38.3800 # C 
445 11 3 204.1370 260.1020 39.4900 # D 
446 11 2 202.6310 259.8940 39.2600 # C 
447 11 7 202.1390 260.6840 38.0200 # L 
448 11 6 200.6230 260.8320 37.9400 # K 
449 11 7 206.4860 259.6480 38.5800 # L 
450 11 7 206.9290 261.1150 38.6000 # L 
451 11 7 208.4540 261.2320 38.6900 # L 
452 11 6 208.9010 262.6820 38.7900 # K 
453 11 8 202.8760 256.1230 38.5400 # Q 
454 11 1 203.7610 255.1740 37.9900 # A 
455 11 8 199.3920 256.1490 40.0300 # Q 
456 11 1 198.4340 257.0470 40.5600 # A 
457 11 8 197.2120 256.6120 41.0300 # Q 
458 11 4 196.2890 257.4790 41.5400 # H 
459 11 1 196.8900 255.2710 41.0100 # A 
460 11 8 197.7790 254.3020 40.5100 # Q 
461 11 8 199.0460 254.7650 40.0000 # Q 
462 11 8 199.9740 253.8450 39.4600 # Q 
463 11 1 199.5970 252.4830 39.4600 # A 
464 11 8 198.3850 251.9920 39.9700 # Q 
465 11 7 198.1860 250.4870 39.9200 # L 
466 11 7 199.1050 249.7410 40.9000 # L 
467 11 6 198.8250 248.2460 40.8900 # K 
468 11 8 197.4530 252.9060 40.5000 # Q 
469 11 7 196.1230 252.3960 41.0400 # L 
470 11 7 196.1490 251.7480 42.4400 # L 
471 11 5 196.4730 252.7050 43.6000 # J 
472 11 6 197.9730 252.7860 43.8900 # K 
473 11 6 195.7490 252.2520 44.8800 # K 
474 12 6 152.2640 91.8070 415.0600 # K 
475 12 5 152.5550 93.1800 415.6700 # J 
476 12 6 153.8880 93.7100 415.1400 # K 
477 12 7 151.4350 94.1990 415.3800 # L 
478 12 8 150.0930 93.8240 415.9600 # Q 
479 12 1 149.8830 93.8200 417.3400 # A 
480 12 8 148.6510 93.4570 417.9400 # Q 
481 12 8 147.5970 93.0700 417.0700 # Q 
482 12 8 146.3550 92.6780 417.6200 # Q 
483 12 1 145.3390 92.3130 416.7100 # A 
484 12 8 145.4920 92.3260 415.3100 # Q 
485 12 8 146.7120 92.7340 414.7700 # Q 
486 12 3 146.8630 92.8860 413.2600 # D 
487 12 2 145.6710 92.4630 412.3800 # C 
488 12 3 144.3480 92.6760 413.1200 # D 
489 12 2 144.3200 91.9050 414.4500 # C 
490 12 7 144.2850 90.3760 414.2100 # L 
491 12 6 143.8850 89.5660 415.4400 # K 
492 12 7 145.7310 93.2240 411.0400 # L 
493 12 7 144.6480 92.8040 410.0400 # L 
494 12 7 144.8330 93.5130 408.6900 # L 
495 12 6 143.7230 93.1580 407.7100 # K 
496 12 8 147.7790 93.0880 415.6500 # Q 
497 12 1 149.0350 93.4710 415.1400 # A 
498 12 8 146.1620 92.6670 419.0500 # Q 
499 12 1 144.9430 92.2570 419.6300 # A 
500 12 8 144.7550 92.2640 421.0000 # Q 
501 12 4 143.5800 91.8670 421.5700 # H 
502 12 1 145.7650 92.6830 421.8400 # A 
503 12 8 147.0140 93.1100 421.3500 # Q 
504 12 8 147.2070 93.0850 419.9200 # Q 
505 12 8 148.4450 93.4800 419.3700 # Q 
506 12 1 149.4450 93.9020 420.2700 # A 
507 12 8 149.2820 93.9700 421.6700 # Q 
508 12 7 150.4650 94.4910 422.4600 # L 
509 12 7 150.7050 95.9900 422.2400 # L 
510 12 6 151.8360 96.5080 423.1200 # K 
511 12 8 148.0570 93.5640 422.2300 # Q 
512 12 7 147.8680 93.6070 423.7400 # L 
513 12 7 147.5970 94.9900 424.3600 # L 
514 12 5 146.2460 95.6290 423.9800 # J 
515 12 6 146.3420 96.4980 422.7300 # K 
516 12 6 145.7290 96.4930 425.1400 # K 
517 13 6 364.3470 307.0460 196.4800 # K 
518 13 5 364.1670 305.8940 197.4800 # J 
519 13 6 364.6310 304.5830 196.8300 # K 
520 13 7 364.9380 306.1280 198.7900 # L 
521 13 8 364.4830 307.3420 199.5600 # Q 
522 13 1 363.2250 307.3820 200.1600 # A 
523 13 8 362.7370 308.5020 200.8800 # Q 
524 13 8 363.5910 309.6340 200.9700 # Q 
525 13 8 363.1430 310.7850 201.6600 # Q 
526 13 1 364.0400 311.8780 201.7300 # A 
527 13 8 365.3240 311.8780 201.1600 # Q 
528 13 8 365.7740 310.7330 200.5000 # Q 
529 13 3 367.2080 310.6560 200.0000 # D 
530 13 2 368.0860 311.9180 200.1400 # C 
531 13 3 367.6660 312.7280 201.3700 # D 
532 13 2 366.1800 313.1210 201.3000 # C 
533 13 7 365.9210 314.1430 200.1700 # L 
534 13 6 364.5770 314.8540 200.2700 # K 
535 13 7 369.5740 311.5080 200.1800 # L 
536 13 7 370.5440 312.6940 200.2200 # L 
537 13 7 372.0000 312.2230 200.1400 # L 
538 13 6 372.9730 313.3860 200.2500 # K 
539 13 8 364.9030 309.6110 200.3800 # Q 
540 13 1 365.3080 308.4520 199.6900 # A 
541 13 8 361.8370 310.8110 202.2600 # Q 
542 13 1 361.3450 311.9530 202.9300 # A 
543 13 8 360.0960 311.9690 203.5200 # Q 
544 13 4 359.6220 313.0710 204.1700 # H 
545 13 1 359.2860 310.8540 203.4700 # A 
546 13 8 359.6900 309.6700 202.8300 # Q 
547 13 8 360.9880 309.6670 202.2000 # Q 
548 13 8 361.4430 308.5170 201.5100 # Q 
549 13 1 360.5760 307.4010 201.5000 # A 
550 13 8 359.3190 307.3570 202.1200 # Q 
551 13 7 358.5570 306.0470 202.0200 # L 
552 13 7 359.2020 304.9290 202.8500 # L 
553 13 6 358.3730 303.6550 202.8100 # K 
554 13 8 358.8560 308.5040 202.7900 # Q 
555 13 7 357.4850 308.4850 203.4600 # L 
556 13 7 357.3840 307.7550 204.8100 # L 
557 13 5 358.1480 308.4160 205.9700 # J 
558 13 6 359.5850 307.9030 206.1000 # K 
559 13 6 357.4210 308.1580 207.3000 # K 
560 14 6 258.9160 205.6950 92.3300 # K 
561 14 5 257.5050 206.2220 92.0500 # J 
562 14 6 257.5900 207.5350 91.2700 # K 
563 14 7 256.6440 205.2080 91.2700 # L 
564 14 8 256.4060 203.9100 92.0100 # Q 
565 14 1 255.6160 203.8680 93.1600 # A 
566 14 8 255.3750 202.6830 93.9000 # Q 
567 14 8 255.9930 201.4930 93.4300 # Q 
568 14 8 255.8020 200.2880 94.1400 # Q 
569 14 1 256.4330 199.1320 93.6200 # A 
570 14 8 257.2130 199.1160 92.4600 # Q 
571 14 8 257.3840 200.3020 91.7400 # Q 
572 14 3 258.1120 200.2880 90.4000 # D 
573 14 2 258.7450 198.9560 89.9500 # C 
574 14 3 257.9410 197.7680 90.4800 # D 
575 14 2 257.8360 197.8060 92.0200 # C 
576 14 7 259.2110 197.5570 92.6800 # L 
577 14 6 259.1320 197.2130 94.1600 # K 
578 14 7 258.8690 198.9460 88.4100 # L 
579 14 7 259.5800 197.7070 87.8500 # L 
580 14 7 259.7710 197.8130 86.3400 # L 
581 14 6 260.4110 196.5590 85.7600 # K 
582 14 8 256.7930 201.5030 92.2300 # Q 
583 14 1 256.9710 202.7250 91.5500 # A 
584 14 8 254.9960 200.2680 95.3300 # Q 
585 14 1 254.8040 199.0880 96.0900 # A 
586 14 8 254.0140 199.0690 97.2200 # Q 
587 14 4 253.8310 197.9310 97.9500 # H 
588 14 1 253.3790 200.2160 97.6500 # A 
589 14 8 253.5100 201.4390 96.9600 # Q 
590 14 8 254.3480 201.4540 95.7900 # Q 
591 14 8 254.5390 202.6550 95.0700 # Q 
592 14 1 253.8650 203.8000 95.5500 # A 
593 14 8 253.0150 203.8160 96.6700 # Q 
594 14 7 252.3510 205.1410 96.9900 # L 
595 14 7 251.2850 205.5330 95.9600 # L 
596 14 6 250.5700 206.8160 96.3600 # K 
597 14 8 252.8350 202.6270 97.4000 # Q 
598 14 7 251.9370 202.6280 98.6300 # L 
599 14 7 250.4170 202.6050 98.3700 # L 
600 14 5 249.8740 201.3060 97.7500 # J 
601 14 6 249.8690 201.3550 96.2200 # K 
602 14 6 248.4450 201.0410 98.2300 # K 
603 15 6 44.2470 420.1130 308.2400 # K 
604 15 5 43.9510 419.2330 307.0300 # J 
605 15 6 45.1900 419.1590 306.1300 # K 
606 15 7 43.5160 417.8090 307.4300 # L 
607 15 8 42.2370 417.7580 308.2300 # Q 
608 15 1 41.0130 418.0890 307.6500 # A 
609 15 8 39.7840 418.0780 308.3600 # Q 
610 15 8 39.8350 417.7190 309.7300 # Q 
611 15 8 38.6410 417.7150 310.4900 # Q 
612 15 1 38.7500 417.3390 311.8500 # A 
613 15 8 39.9520 416.9720 312.4700 # Q 
614 15 8 41.1270 416.9560 311.7200 # Q 
615 15 3 42.4190 416.4340 312.3300 # D 
616 15 2 42.3970 416.0460 313.8300 # C 
617 15 3 41.0090 415.5430 314.2300 # D 
618 15 2 39.9260 416.5960 313.9400 # C 
619 15 7 40.0770 417.8270 314.8700 # L 
620 15 6 38.8500 418.7310 314.9000 # K 
621 15 7 43.5090 415.0110 314.1000 # L 
622 15 7 43.6450 414.6290 315.5800 # L 
623 15 7 44.8350 413.6900 315.8000 # L 
624 15 6 44.9370 413.2480 317.2600 # K 
625 15 8 41.0810 417.3500 310.3500 # Q 
626 15 1 42.2510 417.3800 309.5700 # A 
627 15 8 37.3900 418.0730 309.8800 # Q 
628 15 1 36.1800 418.1050 310.6100 # A 
629 15 8 34.9770 418.4330 310.0100 # Q 
630 15 4 33.8120 418.4650 310.7200 # H 
631 15 1 34.9240 418.7380 308.6700 # A 
632 15 8 36.0760 418.7320 307.8600 # Q 
633 15 8 37.3290 418.4040 308.4900 # Q 
634 15 8 38.5260 418.4020 307.7400 # Q 
635 15 1 38.4160 418.7190 306.3700 # A 
636 15 8 37.2090 419.0130 305.7100 # Q 
637 15 7 37.2970 419.2870 304.2200 # L 
638 15 7 37.6330 418.0270 303.4100 # L 
639 15 6 37.6260 418.3060 301.9200 # K 
640 15 8 36.0180 419.0300 306.4600 # Q 
641 15 7 34.7010 419.3690 305.7700 # L 
642 15 7 34.0560 418.2540 304.9300 # L 
643 15 5 33.5440 417.0370 305.7200 # J 
644 15 6 34.6100 415.9500 305.8800 # K 
645 15 6 32.3190 416.4290 305.0300 # K 
646 16 6 51.4420 216.8390 371.8800 # K 
647 16 5 50.1830 216.2370 372.5100 # J 
648 16 6 49.1020 216.0690 371.4400 # K 
649 16 7 50.4580 214.8790 373.1900 # L 
650 16 8 51.4340 214.9500 374.3400 # Q 
651 16 1 51.0990 215.5990 375.5200 # A 
652 16 8 51.9820 215.7140 376.6300 # Q 
653 16 8 53.2730 215.1390 376.4800 # Q 
654 16 8 54.1990 215.2450 377.5500 # Q 
655 16 1 55.4660 214.6440 377.3500 # A 
656 16 8 55.8410 213.9570 376.1900 # Q 
657 16 8 54.9180 213.8340 375.1500 # Q 
658 16 3 55.2500 212.9820 373.9300 # D 
659 16 2 56.6660 212.3720 373.8500 # C 
660 16 3 57.2130 212.0910 375.2500 # D 
661 16 2 57.2350 213.3650 376.1100 # C 
662 16 7 58.2760 214.3810 375.5900 # L 
663 16 6 58.6200 215.4880 376.5800 # K 
664 16 7 56.6330 211.1120 372.9600 # L 
665 16 7 58.0100 210.4810 372.7200 # L 
666 16 7 57.9220 209.3060 371.7500 # L 
667 16 6 59.2700 208.6270 371.5600 # K 
668 16 8 53.6360 214.4430 375.2800 # Q 
669 16 1 52.6920 214.3700 374.2400 # A 
670 16 8 53.8400 215.9310 378.7600 # Q 
671 16 1 54.7480 216.0800 379.8300 # A 
672 16 8 54.3930 216.7250 381.0000 # Q 
673 16 4 55.2700 216.8700 382.0400 # H 
674 16 1 53.1250 217.2440 381.1600 # A 
675 16 8 52.1520 217.1440 380.1400 # Q 
676 16 8 52.5350 216.4840 378.9200 # Q 
677 16 8 51.6110 216.3700 377.8600 # Q 
678 16 1 50.3250 216.9160 378.0700 # A 
679 16 8 49.9080 217.5380 379.2500 # Q 
680 16 7 48.4690 218.0240 379.3000 # L 
681 16 7 47.4620 216.8670 379.3400 # L 
682 16 6 46.0350 217.3760 379.4800 # K 
683 16 8 50.8280 217.6670 380.3100 # Q 
684 16 7 50.4010 218.3590 381.6000 # L 
685 16 7 49.5300 217.5390 382.5700 # L 
686 16 5 50.2310 216.3340 383.2300 # J 
687 16 6 50.0770 215.0500 382.4100 # K 
688 16 6 49.6630 216.0920 384.6300 # K 
689 17 6 274.5190 431.3720 161.0500 # K 
690 17 5 274.0900 431.2200 162.5100 # J 
691 17 6 275.2580 431.5840 163.4300 # K 
692 17 7 272.8660 432.0930 162.8500 # L 
693 17 8 271.6210 431.7440 162.0700 # Q 
694 17 1 270.9580 430.5350 162.2800 # A 
695 17 8 269.7970 430.1460 161.5700 # Q 
696 17 8 269.3140 431.0490 160.5800 # Q 
697 17 8 268.1730 430.6980 159.8300 # Q 
698 17 1 267.7310 431.6400 158.8700 # A 
699 17 8 268.3460 432.8790 158.6400 # Q 
700 17 8 269.4600 433.2330 159.4000 # Q 
701 17 3 270.0650 434.6230 159.2700 # D 
702 17 2 269.4800 435.5590 158.1900 # C 
703 17 3 267.9940 435.2610 157.9700 # D 
704 17 2 267.7690 433.7920 157.5700 # C 
705 17 7 268.3440 433.4920 156.1700 # L 
706 17 6 267.8450 432.1870 155.5600 # K 
707 17 7 269.7400 437.0280 158.5800 # L 
708 17 7 269.2880 438.0450 157.5300 # L 
709 17 7 269.6760 439.4710 157.9300 # L 
710 17 6 269.1700 440.4950 156.9300 # K 
711 17 8 269.9650 432.3120 160.3600 # Q 
712 17 1 271.1070 432.6190 161.1300 # A 
713 17 8 267.5110 429.4410 160.0500 # Q 
714 17 1 266.3830 429.0450 159.2900 # A 
715 17 8 265.7390 427.8440 159.5200 # Q 
716 17 4 264.6530 427.4630 158.7900 # H 
717 17 1 266.1840 426.9890 160.5100 # A 
718 17 8 267.2980 427.2970 161.3100 # Q 
719 17 8 267.9740 428.5450 161.0600 # Q 
720 17 8 269.1130 428.9030 161.8100 # Q 
721 17 1 269.5250 427.9940 162.8100 # A 
722 17 8 268.8730 426.7850 163.1100 # Q 
723 17 7 269.4490 425.9660 164.2500 # L 
724 17 7 269.2220 426.6250 165.6200 # L 
725 17 6 269.7260 425.7450 166.7500 # K 
726 17 8 267.7480 426.4180 162.3500 # Q 
727 17 7 267.0410 425.0990 162.6400 # L 
728 17 7 266.1150 425.0680 163.8700 # L 
729 17 5 264.8490 425.9410 163.7600 # J 
730 17 6 265.0720 427.3610 164.2900 # K 
731 17 6 263.6980 425.3020 164.5500 # K 
732 18 6 375.0100 105.3850 58.0000 # K 
733 18 5 376.5370 105.3750 58.1100 # J 
734 18 6 376.9550 104.6320 59.3800 # K 
735 18 7 377.2090 104.7250 56.8800 # L 
736 18 8 376.9490 105.4450 55.5800 # Q 
737 18 1 377.4820 106.7110 55.3400 # A 
738 18 8 377.2550 107.4430 54.1500 # Q 
739 18 8 376.4260 106.8360 53.1700 # Q 
740 18 8 376.1500 107.5330 51.9700 # Q 
741 18 1 375.3270 106.8750 51.0200 # A 
742 18 8 374.7890 105.5930 51.2000 # Q 
743 18 8 375.0800 104.8970 52.3800 # Q 
744 18 3 374.6220 103.4550 52.5400 # D 
745 18 2 373.7380 102.8520 51.4300 # C 
746 18 3 374.0770 103.4790 50.0800 # D 