LAMMPS data file

6700 atoms
7700 bonds
13500 angles

8 atom types
16 bond types
30 angle types

# Cell dimensions: 528.24, 528.24, 528.24
0.000000	528.24 xlo xhi
0.000000	528.24 ylo yhi
0.000000	528.24 zlo zhi

Masses

1 13.01864 # A
2 13.01864 # C
3 14.02658 # D
4 13.01864 # J
5 15.03452 # K
6 14.02658 # L
7 15.01464 # M
8 12.0107 # Q

Atoms

1 1 5 257.0170 271.7560 263.7700 # K 
2 1 4 256.6380 270.2840 263.6000 # J 
3 1 6 257.8560 269.3450 263.4500 # L 
4 1 6 259.0600 269.6460 264.3600 # L 
5 1 8 260.1920 268.6500 264.2000 # Q 
6 1 1 259.9690 267.3150 264.5800 # A 
7 1 8 260.9630 266.2960 264.5400 # Q 
8 1 8 262.2700 266.6580 264.1900 # Q 
9 1 1 262.4410 267.9840 263.7000 # A 
10 1 8 261.4500 268.9830 263.7000 # Q 
11 1 6 261.8190 270.3500 263.1700 # L 
12 1 6 261.2230 270.6840 261.8000 # L 
13 1 5 261.7040 269.7640 260.6900 # K 
14 1 8 263.3440 265.6890 264.2600 # Q 
15 1 8 263.0050 264.3180 264.2900 # Q 
16 1 8 263.9930 263.3360 264.0000 # Q 
17 1 8 265.3430 263.7220 263.7700 # Q 
18 1 8 265.7360 265.0830 263.9500 # Q 
19 1 8 267.1170 265.4850 263.8100 # Q 
20 1 8 267.4820 266.8400 264.1400 # Q 
21 1 1 268.6760 267.6380 264.1600 # A 
22 1 1 268.3840 268.8840 264.6700 # A 
23 1 7 267.0570 268.8900 264.9700 # M 
24 1 8 266.4920 267.6840 264.6300 # Q 
25 1 1 265.1620 267.2950 264.7300 # A 
26 1 8 264.7400 266.0280 264.2900 # Q 
27 1 8 268.0530 264.5180 263.3800 # Q 
28 1 1 267.6220 263.1950 263.1900 # A 
29 1 8 266.3020 262.7450 263.3900 # Q 
30 1 8 265.9290 261.3680 263.2700 # Q 
31 1 8 264.6160 260.9960 263.6500 # Q 
32 1 3 264.2280 259.5530 263.9200 # D 
33 1 2 262.8090 259.2220 263.4600 # C 
34 1 6 262.4690 257.7320 263.7100 # L 
35 1 5 263.4440 256.7380 263.0900 # K 
36 1 8 261.8570 260.2250 264.1000 # Q 
37 1 1 260.5580 259.8490 264.4700 # A 
38 1 8 259.6560 260.7670 265.0000 # Q 
39 1 6 258.2860 260.2600 265.4000 # L 
40 1 6 257.2920 260.3860 264.2400 # L 
41 1 4 255.8630 259.8950 264.5300 # J 
42 1 5 255.1990 260.6880 265.6600 # K 
43 1 5 255.8130 258.3960 264.8300 # K 
44 1 8 260.0450 262.1150 265.0700 # Q 
45 1 3 259.1560 263.1370 265.7300 # D 
46 1 3 259.2610 264.4950 265.0700 # D 
47 1 8 260.6870 264.9290 264.7900 # Q 
48 1 8 261.6750 263.9260 264.5900 # Q 
49 1 8 261.3360 262.5470 264.6400 # Q 
50 1 8 262.2830 261.5780 264.2400 # Q 
51 1 8 263.6240 261.9690 263.9600 # Q 
52 1 4 266.9320 260.3360 262.7000 # J 
53 1 5 266.4120 259.6390 261.4300 # K 
54 1 6 267.5290 259.3490 263.7300 # L 
55 1 6 268.3460 260.0380 264.8300 # L 
56 1 5 268.9550 259.0220 265.7900 # K 
57 1 6 269.5260 264.7560 263.1200 # L 
58 1 6 270.3660 264.6120 264.4000 # L 
59 1 6 271.8580 264.7740 264.1000 # L 
60 1 6 272.6860 264.7610 265.3800 # L 
61 1 6 274.1890 264.9440 265.1300 # L 
62 1 4 274.8900 263.8060 264.3600 # J 
63 1 5 274.7960 262.4730 265.1100 # K 
64 1 6 276.3570 264.2080 264.1000 # L 
65 1 5 277.1120 263.2430 263.2000 # K 
66 1 6 255.6250 269.8250 264.6700 # L 
67 1 5 256.1480 269.7080 266.0900 # K 
68 2 5 398.8890 143.6600 389.8400 # K 
69 2 4 397.8490 143.8330 390.9400 # J 
70 2 6 396.5040 143.1310 390.6400 # L 
71 2 6 396.5960 141.7390 390.0000 # L 
72 2 8 395.2450 141.0840 389.8000 # Q 
73 2 1 394.4850 140.7410 390.9300 # A 
74 2 8 393.2280 140.0730 390.8700 # Q 
75 2 8 392.7620 139.6370 389.6300 # Q 
76 2 1 393.4910 140.0950 388.4900 # A 
77 2 8 394.7130 140.7910 388.5400 # Q 
78 2 6 395.3670 141.1720 387.2300 # L 
79 2 6 395.2840 142.6620 386.8800 # L 
80 2 5 393.8610 143.1630 386.6900 # K 
81 2 8 391.5570 138.8400 389.5300 # Q 
82 2 8 390.6630 138.8460 390.6200 # Q 
83 2 8 389.3320 138.3780 390.4600 # Q 
84 2 8 388.9140 137.8310 389.2100 # Q 
85 2 8 389.8710 137.6210 388.1700 # Q 
86 2 8 389.4960 136.9770 386.9300 # Q 
87 2 8 390.5280 136.6610 385.9700 # Q 
88 2 1 390.6130 136.0490 384.6800 # A 
89 2 1 391.9330 135.9650 384.3000 # A 
90 2 7 392.6740 136.4920 385.3100 # M 
91 2 8 391.8450 136.9480 386.3100 # Q 
92 2 1 392.1890 137.5950 387.4900 # A 
93 2 8 391.2020 138.0440 388.3900 # Q 
94 2 8 388.1330 136.6620 386.7300 # Q 
95 2 1 387.2230 136.8990 387.7700 # A 
96 2 8 387.5590 137.4530 389.0200 # Q 
97 2 8 386.6070 137.6020 390.0800 # Q 
98 2 8 387.0840 138.0130 391.3500 # Q 
99 2 3 386.2640 137.8450 392.6200 # D 
100 2 2 386.4430 139.0030 393.6000 # C 
101 2 6 385.5560 138.8170 394.8600 # L 
102 2 5 384.0710 138.6250 394.5700 # K 
103 2 8 387.9350 139.1640 393.8700 # Q 
104 2 1 388.3930 139.5820 395.1300 # A 
105 2 8 389.7460 139.7920 395.3800 # Q 
106 2 6 390.1520 140.2050 396.7800 # L 
107 2 6 390.1820 141.7320 396.9100 # L 
108 2 4 390.5800 142.2660 398.3000 # J 
109 2 5 391.9930 141.8470 398.7000 # K 
110 2 5 389.5740 141.8750 399.3800 # K 
111 2 8 390.6470 139.6680 394.3100 # Q 
112 2 3 392.1320 139.7820 394.5300 # D 
113 2 3 392.8390 140.4200 393.3500 # D 
114 2 8 392.4080 139.8640 392.0100 # Q 
115 2 8 391.0960 139.3280 391.8900 # Q 
116 2 8 390.2060 139.3150 393.0000 # Q 
117 2 8 388.8480 138.9710 392.8000 # Q 
118 2 8 388.4200 138.4640 391.5400 # Q 
119 2 4 385.1060 137.3440 389.8200 # J 
120 2 5 384.2350 138.5860 390.1000 # K 
121 2 6 384.5310 136.0490 390.4400 # L 
122 2 6 385.1830 134.7730 389.8900 # L 
123 2 5 384.5480 133.5270 390.4900 # K 
124 2 6 387.5380 136.0380 385.4800 # L 
125 2 6 387.6130 134.5080 385.5100 # L 
126 2 6 386.9320 133.9000 384.2800 # L 
127 2 6 387.1190 132.3830 384.2400 # L 
128 2 6 386.4710 131.7290 383.0100 # L 
129 2 4 384.9290 131.8060 382.9400 # J 
130 2 5 384.2750 131.0940 384.1300 # K 
131 2 6 384.4630 131.2080 381.5900 # L 
132 2 5 382.9730 131.3770 381.3300 # K 
133 2 6 398.4280 143.5070 392.3400 # L 
134 2 5 398.7330 142.0450 392.6200 # K 
135 3 5 135.5170 395.9950 130.2900 # K 
136 3 4 135.6200 396.5310 131.7100 # J 
137 3 6 135.8150 395.4250 132.7800 # L 
138 3 6 136.7770 394.2880 132.4000 # L 
139 3 8 136.9690 393.2740 133.5100 # Q 
140 3 1 137.5970 393.6920 134.7000 # A 
141 3 8 137.8860 392.8280 135.7900 # Q 
142 3 8 137.6290 391.4590 135.6500 # Q 
143 3 1 136.8930 391.0830 134.4900 # A 
144 3 8 136.5690 391.9430 133.4200 # Q 
145 3 6 135.8090 391.3620 132.2500 # L 
146 3 6 134.3360 391.7790 132.1700 # L 
147 3 5 133.5080 391.3070 133.3600 # K 
148 3 8 138.0250 390.5210 136.6800 # Q 
149 3 8 138.3010 391.0250 137.9700 # Q 
150 3 8 138.3520 390.1400 139.0800 # Q 
151 3 8 138.2010 388.7360 138.8900 # Q 
152 3 8 138.1400 388.2020 137.5600 # Q 
153 3 8 138.0880 386.7750 137.3400 # Q 
154 3 8 138.1720 386.2840 135.9800 # Q 
155 3 1 138.1670 385.0100 135.3200 # A 
156 3 1 138.3600 385.1960 133.9700 # A 
157 3 7 138.4960 386.5360 133.7700 # M 
158 3 8 138.3510 387.2070 134.9600 # Q 
159 3 1 138.3690 388.5780 135.1900 # A 
160 3 8 138.1510 389.1050 136.4800 # Q 
161 3 8 137.9820 385.9250 138.4600 # Q 
162 3 1 138.0300 386.4930 139.7500 # A 
163 3 8 138.1590 387.8710 140.0100 # Q 
164 3 8 138.2810 388.3930 141.3400 # Q 
165 3 8 138.5740 389.7720 141.4900 # Q 
166 3 3 139.0930 390.3560 142.7900 # D 
167 3 2 138.5420 391.7520 143.0800 # C 
168 3 6 139.0570 392.2920 144.4300 # L 
169 3 5 138.7820 391.3890 145.6300 # K 
170 3 8 138.8400 392.6350 141.8700 # Q 
171 3 1 139.1160 393.9980 142.0300 # A 
172 3 8 139.3310 394.8290 140.9300 # Q 
173 3 6 139.6630 396.2830 141.2000 # L 
174 3 6 138.3900 397.1380 141.2400 # L 
175 3 4 138.6090 398.6370 141.5100 # J 
176 3 5 139.4530 399.3070 140.4300 # K 
177 3 5 139.2040 398.8960 142.9000 # K 
178 3 8 139.1700 394.2900 139.6400 # Q 
179 3 3 139.4870 395.1090 138.4200 # D 
180 3 3 138.5710 394.7780 137.2600 # D 
181 3 8 138.3840 393.2900 137.0400 # Q 
182 3 8 138.5190 392.4150 138.1500 # Q 
183 3 8 138.8170 392.9220 139.4500 # Q 
184 3 8 138.7400 392.0630 140.5700 # Q 
185 3 8 138.5470 390.6640 140.3800 # Q 
186 3 4 138.0720 387.4720 142.5600 # J 
187 3 5 136.9200 387.9470 143.4700 # K 
188 3 6 139.3500 387.1000 143.3500 # L 
189 3 6 140.3710 386.3160 142.5200 # L 
190 3 5 141.5830 385.9290 143.3500 # K 
191 3 6 137.8630 384.4170 138.4300 # L 
192 3 6 139.2300 383.7270 138.3700 # L 
193 3 6 139.0840 382.2050 138.4200 # L 
194 3 6 140.4330 381.5120 138.2300 # L 
195 3 6 140.3370 379.9810 138.2500 # L 
196 3 4 139.9060 379.3510 139.6000 # J 
197 3 5 140.9020 379.6770 140.7200 # K 
198 3 6 139.7480 377.8280 139.4100 # L 
199 3 5 139.1630 377.1110 140.6200 # K 
200 3 6 136.6330 397.6900 131.8200 # L 
201 3 5 138.1000 397.3250 131.6700 # K 
202 4 5 206.7860 207.1030 320.4500 # K 
203 4 4 207.1300 205.6380 320.7200 # J 
204 4 6 206.3330 205.0230 321.8900 # L 
205 4 6 204.8470 205.4040 321.9700 # L 
206 4 8 204.1130 204.7160 323.1100 # Q 
207 4 1 203.9660 203.3170 323.0600 # A 
208 4 8 203.2530 202.5580 324.0300 # Q 
209 4 8 202.5670 203.2460 325.0400 # Q 
210 4 1 202.8250 204.6440 325.1300 # A 
211 4 8 203.5630 205.3930 324.2000 # Q 
212 4 6 203.7090 206.8800 324.4300 # L 
213 4 6 205.1000 207.3210 324.9000 # L 
214 4 5 205.4990 206.7380 326.2500 # K 
215 4 8 201.7200 202.5320 325.9700 # Q 
216 4 8 201.9030 201.1370 326.1100 # Q 
217 4 8 201.3610 200.4550 327.2300 # Q 
218 4 8 200.5680 201.1560 328.1800 # Q 
219 4 8 200.1980 202.5140 327.9400 # Q 
220 4 8 199.3130 203.2180 328.8400 # Q 
221 4 8 198.8580 204.5370 328.4700 # Q 
222 4 1 198.0100 205.5530 329.0300 # A 
223 4 1 197.9060 206.5980 328.1400 # A 
224 4 7 198.6470 206.2670 327.0500 # M 
225 4 8 199.2550 205.0490 327.2400 # Q 
226 4 1 200.1300 204.3750 326.4000 # A 
227 4 8 200.7060 203.1480 326.7800 # Q 
228 4 8 198.9130 202.5660 330.0300 # Q 
229 4 1 199.3110 201.2360 330.2400 # A 
230 4 8 200.1090 200.4870 329.3500 # Q 
231 4 8 200.4240 199.1080 329.5700 # Q 
232 4 8 201.0900 198.4030 328.5400 # Q 
233 4 3 201.1390 196.8860 328.4900 # D 
234 4 2 202.4710 196.3500 327.9700 # C 
235 4 6 202.4970 194.8010 327.9800 # L 
236 4 5 202.1970 194.1650 329.3300 # K 
237 4 8 202.7380 196.9960 326.6100 # Q 
238 4 1 203.4080 196.2930 325.6000 # A 
239 4 8 203.7140 196.8870 324.3800 # Q 
240 4 6 204.4050 196.0380 323.3300 # L 
241 4 6 205.9300 196.1560 323.4500 # L 
242 4 4 206.7360 195.3270 322.4300 # J 
243 4 5 206.4570 195.7460 320.9900 # K 
244 4 5 206.5230 193.8240 322.6100 # K 
245 4 8 203.4200 198.2510 324.2100 # Q 
246 4 3 203.6320 198.9260 322.8800 # D 
247 4 3 204.0570 200.3720 323.0400 # D 
248 4 8 203.2370 201.1410 324.0500 # Q 
249 4 8 202.6360 200.4240 325.1200 # Q 
250 4 8 202.8040 199.0170 325.2500 # Q 
251 4 8 202.3770 198.3610 326.4200 # Q 
252 4 8 201.6190 199.0720 327.4000 # Q 
253 4 4 200.0630 198.4310 330.9100 # J 
254 4 5 201.3020 197.8800 331.6500 # K 
255 4 6 198.8900 197.4250 330.8600 # L 
256 4 6 197.5600 198.0630 330.4500 # L 
257 4 5 196.4290 197.0450 330.4700 # K 
258 4 6 198.0370 203.1530 331.1100 # L 
259 4 6 196.5460 202.9640 330.8200 # L 
260 4 6 195.6860 203.4910 331.9800 # L 
261 4 6 194.1980 203.4240 331.6300 # L 
262 4 6 193.2940 203.9630 332.7500 # L 
263 4 4 193.2970 203.1580 334.0700 # J 
264 4 5 192.8040 201.7230 333.8500 # K 
265 4 6 192.4330 203.9030 335.1100 # L 
266 4 5 192.4910 203.2980 336.5000 # K 
267 4 6 207.1010 204.7900 319.4300 # L 
268 4 5 205.7350 204.5330 318.8200 # K 
269 5 5 450.0710 462.1290 71.5400 # K 
270 5 4 449.1140 461.2760 72.3800 # J 
271 5 6 449.6350 459.8460 72.6500 # L 
272 5 6 451.1290 459.7220 72.9800 # L 
273 5 8 451.5570 458.3020 73.2900 # Q 
274 5 1 451.0350 457.6830 74.4500 # A 
275 5 8 451.3980 456.3780 74.8800 # Q 
276 5 8 452.4100 455.7020 74.1900 # Q 
277 5 1 452.8370 456.2990 72.9700 # A 
278 5 8 452.4500 457.5730 72.5100 # Q 
279 5 6 453.0310 458.0640 71.2000 # L 
280 5 6 452.0480 458.0660 70.0300 # L 
281 5 5 451.5430 456.6790 69.6600 # K 
282 5 8 452.9080 454.4290 74.6700 # Q 
283 5 8 452.1120 453.7050 75.5800 # Q 
284 5 8 452.3730 452.3270 75.8200 # Q 
285 5 8 453.4800 451.6890 75.1800 # Q 
286 5 8 454.4130 452.4650 74.4300 # Q 
287 5 8 455.5990 451.8620 73.8700 # Q 
288 5 8 456.5780 452.7150 73.2400 # Q 
289 5 1 457.8450 452.5600 72.5800 # A 
290 5 1 458.3430 453.8000 72.2500 # A 
291 5 7 457.4400 454.7210 72.6900 # M 
292 5 8 456.3580 454.0870 73.2500 # Q 
293 5 1 455.2010 454.6520 73.7700 # A 
294 5 8 454.1580 453.8460 74.2700 # Q 
295 5 8 455.7530 450.4620 73.9800 # Q 
296 5 1 454.8050 449.7340 74.7100 # A 
297 5 8 453.6770 450.2930 75.3500 # Q 
298 5 8 452.7810 449.5190 76.1500 # Q 
299 5 8 451.7770 450.2060 76.8800 # Q 
300 5 3 451.0280 449.5630 78.0300 # D 
301 5 2 449.5590 449.9820 78.1000 # C 
302 5 6 448.8200 449.2700 79.2600 # L 
303 5 5 448.9090 447.7490 79.2400 # K 
304 5 8 449.5040 451.5060 78.1300 # Q 
305 5 1 448.5000 452.1730 78.8400 # A 
306 5 8 448.3990 453.5610 78.8300 # Q 
307 5 6 447.3050 454.1980 79.6600 # L 
308 5 6 446.0240 454.3810 78.8400 # L 
309 5 4 444.8410 455.0190 79.5900 # J 
310 5 5 445.1560 456.4320 80.0700 # K 
311 5 5 444.3480 454.1480 80.7400 # K 
312 5 8 449.2740 454.2860 78.0000 # Q 
313 5 3 449.2830 455.7920 78.0200 # D 
314 5 3 449.5910 456.3780 76.6600 # D 
315 5 8 450.7590 455.7120 75.9600 # Q 
316 5 8 451.0500 454.3550 76.2700 # Q 
317 5 8 450.2620 453.6340 77.2000 # Q 
318 5 8 450.4380 452.2360 77.3400 # Q 
319 5 8 451.5200 451.5890 76.6700 # Q 
320 5 4 452.9030 447.9790 76.1900 # J 
321 5 5 451.6190 447.2710 75.7100 # K 
322 5 6 453.4680 447.3850 77.5000 # L 
323 5 6 454.9010 447.8380 77.8100 # L 
324 5 5 455.4290 447.1850 79.0800 # K 
325 5 6 456.8920 449.6430 73.4100 # L 
326 5 6 458.0950 449.5850 74.3500 # L 
327 5 6 459.1980 448.6840 73.7900 # L 
328 5 6 460.4500 448.7280 74.6700 # L 
329 5 6 461.5940 447.8570 74.1300 # L 
330 5 4 461.3340 446.3330 74.1200 # J 
331 5 5 461.0860 445.7950 75.5400 # K 
332 5 6 462.5310 445.6290 73.4500 # L 
333 5 5 462.3220 444.1370 73.2200 # K 
334 5 6 448.6350 462.0170 73.6400 # L 
335 5 5 449.6690 462.2280 74.7400 # K 
336 6 5 328.1360 68.1030 193.8400 # K 
337 6 4 326.8470 68.2530 194.6500 # J 
338 6 6 326.9750 69.2300 195.8400 # L 
339 6 6 327.7730 70.5160 195.5800 # L 
340 6 8 327.8040 71.4550 196.7700 # Q 
341 6 1 326.5970 72.0420 197.1900 # A 
342 6 8 326.4990 72.9820 198.2600 # Q 
343 6 8 327.6820 73.4320 198.8600 # Q 
344 6 1 328.8720 72.7410 198.4900 # A 
345 6 8 328.9660 71.7820 197.4600 # Q 
346 6 6 330.3240 71.1720 197.1800 # L 
347 6 6 330.4830 69.7230 197.6600 # L 
348 6 5 330.3580 69.5600 199.1700 # K 
349 6 8 327.6470 74.4820 199.8500 # Q 
350 6 8 326.4150 74.7590 200.4900 # Q 
351 6 8 326.3910 75.5150 201.6900 # Q 
352 6 8 327.5960 76.0610 202.2200 # Q 
353 6 8 328.8080 75.9710 201.4700 # Q 
354 6 8 330.0220 76.6020 201.9400 # Q 
355 6 8 331.1790 76.6010 201.0700 # Q 
356 6 1 332.5280 77.0900 201.1200 # A 
357 6 1 333.1460 76.8350 199.9200 # A 
358 6 7 332.2300 76.2160 199.1200 # M 
359 6 8 331.0550 76.0360 199.8100 # Q 
360 6 1 329.8920 75.4060 199.3900 # A 
361 6 8 328.7870 75.2620 200.2500 # Q 
362 6 8 330.0080 77.2140 203.2100 # Q 
363 6 1 328.7990 77.2680 203.9200 # A 
364 6 8 327.5760 76.7350 203.4700 # Q 
365 6 8 326.3530 76.8840 204.2000 # Q 
366 6 8 325.1520 76.4580 203.5800 # Q 
367 6 3 323.7840 76.8980 204.0700 # D 
368 6 2 322.7290 75.7970 203.9500 # C 
369 6 6 321.3610 76.2700 204.5100 # L 
370 6 5 321.3940 76.7860 205.9400 # K 
371 6 8 322.7130 75.3080 202.5100 # Q 
372 6 1 321.5220 74.8780 201.9100 # A 
373 6 8 321.5000 74.3720 200.6200 # Q 
374 6 6 320.1590 73.9690 200.0400 # L 
375 6 6 319.8650 72.4890 200.3100 # L 
376 6 4 318.5200 71.9700 199.7700 # J 
377 6 5 318.4310 72.0700 198.2500 # K 
378 6 5 317.3230 72.6580 200.4300 # K 
379 6 8 322.7240 74.2090 199.9400 # Q 
380 6 3 322.7580 73.7640 198.5000 # D 
381 6 3 323.9670 72.9010 198.2000 # D 
382 6 8 325.2630 73.4520 198.7700 # Q 
383 6 8 325.2060 74.2730 199.9200 # Q 
384 6 8 323.9640 74.5680 200.5500 # Q 
385 6 8 323.9500 75.2080 201.8100 # Q 
386 6 8 325.1620 75.7180 202.3600 # Q 
387 6 4 326.3630 77.4710 205.6300 # J 
388 6 5 325.7940 76.4900 206.6700 # K 
389 6 6 325.8000 78.9030 205.7700 # L 
390 6 6 326.5910 79.9500 204.9800 # L 
391 6 5 326.0300 81.3470 205.1900 # K 
392 6 6 331.1860 77.8780 203.8900 # L 
393 6 6 331.3440 79.3450 203.4800 # L 
394 6 6 332.4880 80.0140 204.2500 # L 
395 6 6 332.7330 81.4380 203.7400 # L 
396 6 6 333.8870 82.1440 204.4700 # L 
397 6 4 333.6710 82.4270 205.9700 # J 
398 6 5 332.4690 83.3500 206.2000 # K 
399 6 6 334.9660 83.0280 206.5600 # L 
400 6 5 334.9400 83.1970 208.0700 # K 
401 6 6 325.6260 68.5250 193.7400 # L 
402 6 5 325.5680 69.8890 193.0800 # K 
403 7 5 67.1910 332.8100 450.0100 # K 
404 7 4 67.3330 331.3440 449.6000 # J 
405 7 6 68.7220 330.7450 449.9200 # L 
406 7 6 69.3370 331.1410 451.2700 # L 
407 7 8 70.6680 330.4690 451.5400 # Q 
408 7 1 70.6930 329.0710 451.7000 # A 
409 7 8 71.8650 328.3260 452.0200 # Q 
410 7 8 73.0480 329.0280 452.2800 # Q 
411 7 1 73.0220 330.4240 452.0000 # A 
412 7 8 71.8730 331.1590 451.6500 # Q 
413 7 6 72.0260 332.6470 451.4200 # L 
414 7 6 71.9490 333.0770 449.9500 # L 
415 7 5 73.0640 332.5020 449.0900 # K 
416 7 8 74.2330 328.3290 452.7300 # Q 
417 7 8 74.3050 326.9340 452.5200 # Q 
418 7 8 75.5550 326.2650 452.6200 # Q 
419 7 8 76.7250 326.9810 453.0100 # Q 
420 7 8 76.6190 328.3400 453.4300 # Q 
421 7 8 77.7720 329.0600 453.9300 # Q 
422 7 8 77.5830 330.3800 454.4700 # Q 
423 7 1 78.4000 331.4090 455.0500 # A 
424 7 1 77.6000 332.4470 455.4700 # A 
425 7 7 76.3150 332.1010 455.1800 # M 
426 7 8 76.2890 330.8790 454.5500 # Q 
427 7 1 75.1920 330.1910 454.0500 # A 
428 7 8 75.3500 328.9610 453.3800 # Q 
429 7 8 79.0320 328.4210 453.8700 # Q 
430 7 1 79.0940 327.0890 453.4300 # A 
431 7 8 77.9840 326.3260 453.0100 # Q 
432 7 8 78.0900 324.9450 452.6500 # Q 
433 7 8 76.8910 324.2260 452.4100 # Q 
434 7 3 76.8460 322.7080 452.3900 # D 
435 7 2 75.8780 322.1560 451.3500 # C 
436 7 6 75.8950 320.6060 451.3300 # L 
437 7 5 77.2700 319.9840 451.1200 # K 
438 7 8 74.5110 322.7890 451.5900 # Q 
439 7 1 73.3340 322.0720 451.3400 # A 
440 7 8 72.0800 322.6540 451.5000 # Q 
441 7 6 70.8620 321.7900 451.2400 # L 
442 7 6 70.4120 321.8940 449.7800 # L 
443 7 4 69.1800 321.0500 449.4000 # J 
444 7 5 67.9350 321.4610 450.1900 # K 
445 7 5 69.4370 319.5500 449.5500 # K 
446 7 8 72.0150 324.0190 451.8200 # Q 
447 7 3 70.6930 324.6820 452.1100 # D 
448 7 3 70.6680 326.1250 451.6500 # D 
449 7 8 71.9050 326.9090 452.0300 # Q 
450 7 8 73.1290 326.2060 452.2100 # Q 
451 7 8 73.1950 324.7990 452.0100 # Q 
452 7 8 74.4550 324.1550 451.9800 # Q 
453 7 8 75.6320 324.8810 452.3300 # Q 
454 7 4 79.4770 324.2820 452.5000 # J 
455 7 5 79.7160 323.7250 451.0800 # K 
456 7 6 79.8710 323.2870 453.6100 # L 
457 7 6 79.9630 323.9340 455.0000 # L 
458 7 5 80.4050 322.9270 456.0500 # K 
459 7 6 80.3560 329.0250 454.2800 # L 
460 7 6 80.6320 328.8470 455.7800 # L 
461 7 6 82.0120 329.3910 456.1500 # L 
462 7 6 82.2370 329.3360 457.6700 # L 
463 7 6 83.6000 329.8910 458.1000 # L 
464 7 4 84.8370 329.0970 457.6200 # J 
465 7 5 84.8300 327.6650 458.1600 # K 
466 7 6 86.1120 329.8570 458.0400 # L 
467 7 5 87.3980 329.2630 457.4700 # K 
468 7 6 66.1520 330.4860 450.1000 # L 
469 7 5 66.0850 330.2380 451.6000 # K 
470 8 5 102.0470 167.7040 160.7300 # K 
471 8 4 102.8010 169.0120 160.9700 # J 
472 8 6 103.2330 169.2150 162.4400 # L 
473 8 6 103.7710 167.9720 163.1700 # L 
474 8 8 104.2350 168.2570 164.5800 # Q 
475 8 1 105.3450 169.1010 164.7600 # A 
476 8 8 105.9140 169.4040 166.0300 # Q 
477 8 8 105.4080 168.7450 167.1600 # Q 
478 8 1 104.2180 167.9890 166.9600 # A 
479 8 8 103.6290 167.7200 165.7100 # Q 
480 8 6 102.3800 166.8660 165.6900 # L 
481 8 6 101.0860 167.6340 165.4000 # L 
482 8 5 100.7450 168.6710 166.4600 # K 
483 8 8 106.0350 168.9170 168.4600 # Q 
484 8 8 106.8840 170.0310 168.6400 # Q 
485 8 8 107.2400 170.4390 169.9600 # Q 
486 8 8 106.8080 169.6840 171.0900 # Q 
487 8 8 106.1350 168.4390 170.8900 # Q 
488 8 8 105.7750 167.6050 172.0200 # Q 
489 8 8 105.2270 166.2950 171.7600 # Q 
490 8 1 104.7560 165.1790 172.5300 # A 
491 8 1 104.4150 164.1510 171.6900 # A 
492 8 7 104.6650 164.5790 170.4200 # M 
493 8 8 105.1200 165.8760 170.4400 # Q 
494 8 1 105.4410 166.6980 169.3700 # A 
495 8 8 105.8470 168.0320 169.5700 # Q 
496 8 8 106.0010 168.1060 173.3200 # Q 
497 8 1 106.6510 169.3420 173.4700 # A 
498 8 8 107.0890 170.1500 172.4000 # Q 
499 8 8 107.8170 171.3670 172.6000 # Q 
500 8 8 108.3560 172.0160 171.4600 # Q 
501 8 3 109.4410 173.0740 171.5700 # D 
502 8 2 109.2780 174.1980 170.5400 # C 
503 8 6 110.3750 175.2780 170.7100 # L 
504 8 5 110.4690 175.8800 172.1100 # K 
505 8 8 109.1960 173.5650 169.1600 # Q 
506 8 1 109.7220 174.2230 168.0400 # A 
507 8 8 109.6030 173.6880 166.7600 # Q 
508 8 6 110.2380 174.4500 165.6100 # L 
509 8 6 109.2390 175.4320 164.9900 # L 
510 8 4 109.7810 176.2650 163.8100 # J 
511 8 5 110.2090 175.3950 162.6300 # K 
512 8 5 110.9160 177.1980 164.2300 # K 
513 8 8 108.8530 172.5110 166.5900 # Q 
514 8 3 108.7730 171.8280 165.2500 # D 
515 8 3 107.4270 171.1700 165.0300 # D 
516 8 8 106.9370 170.3670 166.2200 # Q 
517 8 8 107.3710 170.7450 167.5200 # Q 
518 8 8 108.2420 171.8540 167.7000 # Q 
519 8 8 108.4920 172.3360 169.0100 # Q 
520 8 8 108.0230 171.6050 170.1400 # Q 
521 8 4 107.9790 171.9530 174.0200 # J 
522 8 5 107.3800 173.3690 174.1500 # K 
523 8 6 109.3900 171.8350 174.6400 # L 
524 8 6 109.8520 170.3850 174.8300 # L 
525 8 5 111.2210 170.3210 175.4900 # K 
526 8 6 105.6460 167.4100 174.6200 # L 
527 8 6 106.7450 166.4510 175.0800 # L 
528 8 6 106.3980 165.8250 176.4300 # L 
529 8 6 107.4290 164.7700 176.8400 # L 
530 8 6 107.1120 164.0960 178.1800 # L 
531 8 4 107.1680 165.0100 179.4300 # J 
532 8 5 108.5690 165.5980 179.6300 # K 
533 8 6 106.7110 164.2010 180.6600 # L 
534 8 5 106.5610 165.0370 181.9200 # K 
535 8 6 103.9390 169.2190 159.9500 # L 
536 8 5 105.1430 168.3030 160.0800 # K 
537 9 5 359.4610 431.5580 423.4700 # K 
538 9 4 360.5980 430.7400 422.8600 # J 
539 9 6 360.3290 429.2180 422.8500 # L 
540 9 6 358.9010 428.7840 422.4900 # L 
541 9 8 358.7250 427.2800 422.4400 # Q 
542 9 1 359.4180 426.5560 421.4500 # A 
543 9 8 359.2980 425.1510 421.2600 # Q 
544 9 8 358.3580 424.4540 422.0300 # Q 
545 9 1 357.7580 425.1850 423.0900 # A 
546 9 8 357.9050 426.5680 423.3100 # Q 
547 9 6 357.1630 427.1870 424.4800 # L 
548 9 6 358.0480 427.5700 425.6700 # L 
549 9 5 358.7370 426.3810 426.3200 # K 
550 9 8 358.1030 423.0490 421.7900 # Q 
551 9 8 359.0650 422.3130 421.0600 # Q 
552 9 8 359.0420 420.8920 421.0900 # Q 
553 9 8 358.0080 420.2040 421.7900 # Q 
554 9 8 356.9130 420.9370 422.3400 # Q 
555 9 8 355.8010 420.2580 422.9600 # Q 
556 9 8 354.6570 421.0350 423.3700 # Q 
557 9 1 353.3870 420.7930 424.0000 # A 
558 9 1 352.6780 421.9700 424.0600 # A 
559 9 7 353.4520 422.9340 423.4900 # M 
560 9 8 354.6580 422.3980 423.1000 # Q 
561 9 1 355.7460 423.0440 422.5300 # A 
562 9 8 356.9360 422.3470 422.2400 # Q 
563 9 8 355.8770 418.8550 423.1200 # Q 
564 9 1 356.9780 418.1750 422.5700 # A 
565 9 8 358.0450 418.7890 421.8900 # Q 
566 9 8 359.1070 418.0420 421.2900 # Q 
567 9 8 360.0400 418.7430 420.4800 # Q 
568 9 3 360.9600 418.0330 419.5000 # D 
569 9 2 362.3460 418.6740 419.4200 # C 
570 9 6 363.2680 417.8960 418.4500 # L 
571 9 5 363.4190 416.4110 418.7600 # K 
572 9 8 362.1620 420.1540 419.1000 # Q 
573 9 1 363.0960 420.8380 418.3100 # A 
574 9 8 362.9760 422.2010 418.0600 # Q 
575 9 6 364.0120 422.8480 417.1600 # L 
576 9 6 365.1860 423.3940 417.9800 # L 
577 9 4 366.3040 424.0720 417.1700 # J 
578 9 5 365.8060 425.2980 416.4100 # K 
579 9 5 367.0090 423.0980 416.2200 # K 
580 9 8 361.9410 422.9080 418.6900 # Q 
581 9 3 361.6960 424.3620 418.3800 # D 
582 9 3 361.2040 425.1280 419.5900 # D 
583 9 8 360.1090 424.4150 420.3600 # Q 
584 9 8 360.0580 422.9950 420.3100 # Q 
585 9 8 361.0140 422.2570 419.5600 # Q 
586 9 8 361.0710 420.8500 419.6900 # Q 
587 9 8 360.0590 420.1630 420.4200 # Q 
588 9 4 359.2330 416.5220 421.5400 # J 
589 9 5 360.5750 416.1410 422.2000 # K 
590 9 6 358.8630 415.6110 420.3400 # L 
591 9 6 357.4020 415.7520 419.9000 # L 
592 9 5 357.0740 414.7980 418.7600 # K 
593 9 6 354.8440 417.9760 423.7900 # L 
594 9 6 353.7350 417.5430 422.8200 # L 
595 9 6 352.7510 416.5890 423.5000 # L 
596 9 6 351.5730 416.2590 422.5900 # L 
597 9 6 350.5460 415.3220 423.2300 # L 
598 9 4 351.0410 413.8920 423.5500 # J 
599 9 5 351.4700 413.1520 422.2800 # K 
600 9 6 349.9260 413.1320 424.3000 # L 
601 9 5 350.3510 411.7640 424.8200 # K 
602 9 6 361.0430 431.3040 421.4900 # L 
603 9 5 360.0690 431.1340 420.3400 # K 
604 10 5 480.3160 38.3700 303.4400 # K 
605 10 4 481.6360 37.9990 302.7600 # J 
606 10 6 481.9210 38.8080 301.4800 # L 
607 10 6 481.5750 40.3040 301.5300 # L 
608 10 8 481.9390 41.0470 300.2600 # Q 
609 10 1 483.2990 41.1610 299.9100 # A 
610 10 8 483.7760 41.8780 298.7800 # Q 
611 10 8 482.8530 42.6030 298.0200 # Q 
612 10 1 481.4790 42.3800 298.3200 # A 
613 10 8 481.0020 41.6370 299.4100 # Q 
614 10 6 479.5030 41.5320 299.6000 # L 
615 10 6 478.9100 40.1620 299.2500 # L 
616 10 5 479.0800 39.7810 297.7900 # K 
617 10 8 483.3020 43.4540 296.9300 # Q 
618 10 8 484.5980 43.2420 296.4100 # Q 
619 10 8 484.9550 43.7940 295.1500 # Q 
620 10 8 484.0380 44.6250 294.4400 # Q 
621 10 8 482.8140 45.0200 295.0700 # Q 
622 10 8 481.9120 45.9420 294.4100 # Q 
623 10 8 480.7610 46.4180 295.1400 # Q 
624 10 1 479.6540 47.3020 294.9000 # A 
625 10 1 478.9040 47.4100 296.0500 # A 
626 10 7 479.5060 46.6370 297.0000 # M 
627 10 8 480.6020 46.0060 296.4600 # Q 
628 10 1 481.4590 45.0960 297.0600 # A 
629 10 8 482.5130 44.5000 296.3400 # Q 
630 10 8 482.2160 46.3530 293.1000 # Q 
631 10 1 483.4230 45.9290 292.5200 # A 
632 10 8 484.3670 45.0940 293.1500 # Q 
633 10 8 485.6190 44.7530 292.5400 # Q 
634 10 8 486.5660 44.0470 293.3300 # Q 
635 10 3 488.0340 43.9630 292.9500 # D 
636 10 2 488.6570 42.6070 293.2800 # C 
637 10 6 490.1390 42.5450 292.8300 # L 
638 10 5 490.3800 42.8610 291.3600 # K 
639 10 8 488.4080 42.3230 294.7600 # Q 
640 10 1 489.3460 41.6140 295.5200 # A 
641 10 8 489.1080 41.2950 296.8500 # Q 
642 10 6 490.1970 40.5610 297.6100 # L 
643 10 6 490.0070 39.0420 297.5100 # L 
644 10 4 491.0640 38.1930 298.2400 # J 
645 10 5 491.0730 38.4500 299.7400 # K 
646 10 5 492.4630 38.3750 297.6500 # K 
647 10 8 487.8550 41.6160 297.4000 # Q 
648 10 3 487.5730 41.3890 298.8600 # D 
649 10 3 486.1300 41.0010 299.1100 # D 
650 10 8 485.1310 41.8620 298.3600 # Q 
651 10 8 485.5370 42.4700 297.1400 # Q 
652 10 8 486.8480 42.2730 296.6300 # Q 
653 10 8 487.1610 42.7120 295.3200 # Q 
654 10 8 486.2270 43.5080 294.6000 # Q 
655 10 4 485.9040 45.1280 291.0700 # J 
656 10 5 486.1920 43.8950 290.1900 # K 
657 10 6 486.9170 46.2760 290.8500 # L 
658 10 6 486.4590 47.6120 291.4500 # L 
659 10 5 487.4630 48.7190 291.1700 # K 
660 10 6 481.3740 47.2670 292.2300 # L 
661 10 6 481.6790 48.7470 292.4800 # L 
662 10 6 480.8760 49.6450 291.5400 # L 
663 10 6 481.0790 51.1230 291.8700 # L 
664 10 6 480.2760 52.0640 290.9600 # L 
665 10 4 480.6790 52.0730 289.4700 # J 
666 10 5 482.1300 52.5270 289.2800 # K 
667 10 6 479.6980 52.9770 288.7000 # L 
668 10 5 479.8860 52.9380 287.1800 # K 
669 10 6 482.8110 37.9780 303.7600 # L 
670 10 5 483.2680 39.3240 304.3000 # K 
671 11 5 226.8260 300.6510 50.9500 # K 
672 11 4 228.3390 300.5020 51.1000 # J 
673 11 6 228.9730 299.5210 50.0900 # L 
674 11 6 228.4380 299.5940 48.6500 # L 
675 11 8 229.1470 298.6510 47.7000 # Q 
676 11 1 230.5100 298.8730 47.4300 # A 
677 11 8 231.2760 298.0960 46.5100 # Q 
678 11 8 230.6170 297.1160 45.7600 # Q 
679 11 1 229.2720 296.8370 46.1400 # A 
680 11 8 228.5230 297.5780 47.0700 # Q 
681 11 6 227.0910 297.1580 47.3200 # L 
682 11 6 226.8560 296.4630 48.6700 # L 
683 11 5 227.6080 295.1490 48.8100 # K 
684 11 8 231.3200 296.3890 44.7200 # Q 
685 11 8 232.7320 296.3890 44.7500 # Q 
686 11 8 233.4560 295.4320 43.9900 # Q 
687 11 8 232.7680 294.5190 43.1400 # Q 
688 11 8 231.3600 294.6560 42.9400 # Q 
689 11 8 230.6520 293.8080 42.0100 # Q 
690 11 8 229.2610 294.0820 41.7400 # Q 
691 11 1 228.2160 293.5310 40.9200 # A 
692 11 1 227.0850 294.3040 41.0500 # A 
693 11 7 227.3880 295.3200 41.9000 # M 
694 11 8 228.6790 295.1820 42.3600 # Q 
695 11 1 229.3610 295.9710 43.2700 # A 
696 11 8 230.6760 295.6570 43.6700 # Q 
697 11 8 231.3680 292.7630 41.3800 # Q 
698 11 1 232.7480 292.6540 41.6200 # A 
699 11 8 233.4910 293.5070 42.4600 # Q 
700 11 8 234.9110 293.4020 42.6000 # Q 
701 11 8 235.5820 294.4110 43.3400 # Q 
702 11 3 237.0840 294.6200 43.2400 # D 
703 11 2 237.7110 295.0210 44.5800 # C 
704 11 6 239.2480 295.1790 44.4500 # L 
705 11 5 239.9750 293.9580 43.9000 # K 
706 11 8 236.9700 296.2490 45.1000 # Q 
707 11 1 237.6420 297.2330 45.8300 # A 
708 11 8 236.9690 298.3280 46.3700 # Q 
709 11 6 237.7850 299.3630 47.1100 # L 
710 11 6 237.8490 299.0340 48.6100 # L 
711 11 4 238.6590 300.0220 49.4700 # J 
712 11 5 238.0730 301.4320 49.4400 # K 
713 11 5 240.1400 300.0450 49.0900 # K 
714 11 8 235.5710 298.3810 46.2300 # Q 
715 11 3 234.7980 299.5870 46.7000 # D 
716 11 3 233.4310 299.2150 47.2400 # D 
717 11 8 232.6770 298.2370 46.3600 # Q 
718 11 8 233.4240 297.3410 45.5400 # Q 
719 11 8 234.8460 297.3580 45.5500 # Q 
720 11 8 235.5620 296.3270 44.9000 # Q 
721 11 8 234.8690 295.3870 44.0800 # Q 
722 11 4 235.6710 292.2040 41.9900 # J 
723 11 5 236.4260 291.3770 43.0500 # K 
724 11 6 236.5310 292.5190 40.7400 # L 
725 11 6 235.7110 293.0330 39.5500 # L 
726 11 5 236.5930 293.2780 38.3400 # K 
727 11 6 230.7950 291.7430 40.4200 # L 
728 11 6 230.7880 292.2480 38.9700 # L 
729 11 6 230.2830 291.1680 38.0100 # L 
730 11 6 230.1500 291.7100 36.5900 # L 
731 11 6 229.6250 290.6700 35.5900 # L 
732 11 4 230.5500 289.4600 35.3300 # J 
733 11 5 231.8920 289.8990 34.7400 # K 
734 11 6 229.8180 288.4670 34.4000 # L 
735 11 5 230.5590 287.1510 34.2000 # K 
736 11 6 229.0490 301.8710 51.1800 # L 
737 11 5 229.0910 302.6820 49.8900 # K 
738 12 5 175.5470 103.5300 476.2600 # K 
739 12 4 174.3880 102.7080 476.8200 # J 
740 12 6 173.8200 103.2670 478.1500 # L 
741 12 6 173.6810 104.7940 478.2300 # L 
742 12 8 173.0600 105.2680 479.5300 # Q 
743 12 1 171.7230 104.9220 479.8000 # A 
744 12 8 171.0060 105.3490 480.9600 # Q 
745 12 8 171.6290 106.2510 481.8300 # Q 
746 12 1 173.0130 106.4920 481.6000 # A 
747 12 8 173.7360 106.0390 480.4800 # Q 
748 12 6 175.1970 106.4210 480.3700 # L 