LAMMPS data file

5200 atoms
6000 bonds
10200 angles

8 atom types
13 bond types
29 angle types

# Cell dimensions: 489.533, 489.533, 489.533
0.000000	489.533 xlo xhi
0.000000	489.533 ylo yhi
0.000000	489.533 zlo zhi

Masses

1 13.01864 # A
2 13.01864 # C
3 14.02658 # D
4 32.065 # F
5 13.01864 # J
6 15.03452 # K
7 14.02658 # L
8 12.0107 # Q

Atoms

1 1 6 246.9420 248.9650 244.4200 # K 
2 1 8 247.5440 247.6390 244.8100 # Q 
3 1 1 248.9380 247.5530 244.8900 # A 
4 1 8 249.5780 246.3650 245.2600 # Q 
5 1 7 251.0930 246.3710 245.3200 # L 
6 1 7 251.6880 245.9790 243.9500 # L 
7 1 5 253.2230 246.1370 243.8800 # J 
8 1 6 253.9310 245.0980 244.7500 # K 
9 1 7 253.6660 246.0560 242.4000 # L 
10 1 7 255.1490 246.3500 242.1600 # L 
11 1 6 255.9860 245.0940 241.9700 # K 
12 1 8 248.8000 245.2180 245.5300 # Q 
13 1 3 249.4330 243.9670 246.0900 # D 
14 1 2 248.6780 242.6370 245.8700 # C 
15 1 7 249.1650 241.5950 246.9100 # L 
16 1 7 250.6770 241.3430 246.9000 # L 
17 1 6 251.0720 240.2890 247.9300 # K 
18 1 8 247.1590 242.8130 245.8600 # Q 
19 1 1 246.3040 241.6840 245.9800 # A 
20 1 8 244.9140 241.8540 245.8800 # Q 
21 1 4 243.6420 240.6940 245.9700 # F 
22 1 8 242.3980 241.8740 245.6900 # Q 
23 1 8 242.9780 243.1220 245.5500 # Q 
24 1 8 244.3920 243.1070 245.6500 # Q 
25 1 8 245.2160 244.2320 245.5000 # Q 
26 1 8 246.6190 244.1020 245.6100 # Q 
27 1 8 247.3930 245.2660 245.4000 # Q 
28 1 8 246.7520 246.4950 245.0700 # Q 
29 1 1 245.3320 246.5400 245.0100 # A 
30 1 8 244.4960 245.4280 245.2200 # Q 
31 1 8 243.0130 245.4600 245.1500 # Q 
32 1 1 242.2470 246.6210 244.9300 # A 
33 1 8 240.8320 246.6300 244.8800 # Q 
34 1 8 240.1120 245.4200 245.0100 # Q 
35 1 3 238.6040 245.3870 244.8300 # D 
36 1 2 237.9110 246.7580 244.8400 # C 
37 1 3 238.7470 247.7730 244.0500 # D 
38 1 2 240.1290 247.9690 244.7000 # C 
39 1 7 240.0000 248.7460 246.0400 # L 
40 1 6 241.3070 249.3440 246.5500 # K 
41 1 7 236.4440 246.6860 244.3600 # L 
42 1 7 236.2430 246.4550 242.8600 # L 
43 1 7 234.7750 246.2220 242.4800 # L 
44 1 6 233.8860 247.4320 242.7300 # K 
45 1 8 240.8190 244.2070 245.2300 # Q 
46 1 1 240.2430 242.9190 245.3800 # A 
47 1 8 240.9960 241.7330 245.6000 # Q 
48 1 7 240.2770 240.4060 245.7000 # L 
49 1 5 240.2660 239.6020 244.3900 # J 
50 1 6 239.6880 238.2070 244.6400 # K 
51 1 6 239.4650 240.2990 243.2900 # K 
52 1 8 242.2220 244.2840 245.3100 # Q 
53 2 6 359.2490 132.6640 362.7900 # K 
54 2 8 359.4850 131.3470 363.4800 # Q 
55 2 1 359.4050 131.3200 364.8800 # A 
56 2 8 359.5880 130.1340 365.6000 # Q 
57 2 7 359.4920 130.2100 367.1100 # L 
58 2 7 360.8630 130.5160 367.7300 # L 
59 2 5 360.8070 130.7850 369.2500 # J 
60 2 6 360.4760 129.5100 370.0300 # K 
61 2 7 362.1470 131.4120 369.7000 # L 
62 2 7 362.1850 131.8760 371.1600 # L 
63 2 6 362.8930 130.8960 372.0800 # K 
64 2 8 359.8980 128.9460 364.9000 # Q 
65 2 3 359.9400 127.6170 365.6200 # D 
66 2 2 360.7620 126.4880 364.9600 # C 
67 2 7 360.2890 125.1190 365.5200 # L 
68 2 7 360.3640 124.9940 367.0500 # L 
69 2 6 359.9090 123.6150 367.5100 # K 
70 2 8 360.7400 126.5540 363.4300 # Q 
71 2 1 361.1720 125.4430 362.6600 # A 
72 2 8 361.2300 125.5530 361.2600 # Q 
73 2 4 361.7170 124.4030 360.0700 # F 
74 2 8 361.4670 125.4990 358.7500 # Q 
75 2 8 361.0090 126.7080 359.2400 # Q 
76 2 8 360.8840 126.7380 360.6500 # Q 
77 2 8 360.4780 127.8560 361.4000 # Q 
78 2 8 360.4010 127.7810 362.8000 # Q 
79 2 8 360.0300 128.9570 363.5000 # Q 
80 2 8 359.7920 130.1610 362.7700 # Q 
81 2 1 359.8740 130.1410 361.3500 # A 
82 2 8 360.2100 129.0020 360.5900 # Q 
83 2 8 360.3070 128.9710 359.1100 # Q 
84 2 1 360.0090 130.0580 358.2700 # A 
85 2 8 360.0920 129.9990 356.8500 # Q 
86 2 8 360.5450 128.8180 356.2200 # Q 
87 2 3 360.7720 128.7790 354.7200 # D 
88 2 2 360.1660 129.9490 353.9300 # C 
89 2 3 360.3770 131.2590 354.7000 # D 
90 2 2 359.6670 131.2250 356.0600 # C 
91 2 7 358.1280 131.3030 355.8800 # L 
92 2 6 357.3590 131.6840 357.1400 # K 
93 2 7 360.6710 130.0110 352.4700 # L 
94 2 7 362.1210 130.4740 352.2900 # L 
95 2 7 362.6070 130.3460 350.8400 # L 
96 2 6 361.8700 131.2550 349.8700 # K 
97 2 8 360.8710 127.6820 357.0100 # Q 
98 2 1 361.3460 126.4370 356.5300 # A 
99 2 8 361.6610 125.3290 357.3600 # Q 
100 2 7 362.1900 124.0560 356.7400 # L 
101 2 5 363.7280 123.9380 356.7800 # J 
102 2 6 364.1540 122.5480 356.3000 # K 
103 2 6 364.4190 125.0070 355.9400 # K 
104 2 8 360.7220 127.8030 358.4100 # Q 
105 3 6 124.4400 363.0310 129.2500 # K 
106 3 8 125.4360 363.2430 128.1400 # Q 
107 3 1 125.0330 364.0050 127.0400 # A 
108 3 8 125.9030 364.2700 125.9700 # Q 
109 3 7 125.3680 365.0960 124.8200 # L 
110 3 7 124.7240 364.1960 123.7500 # L 
111 3 5 124.0000 364.9820 122.6400 # J 
112 3 6 124.9960 365.7260 121.7500 # K 
113 3 7 123.1120 364.0050 121.8300 # L 
114 3 7 122.2120 364.6680 120.7900 # L 
115 3 6 122.7630 364.5660 119.3700 # K 
116 3 8 127.2040 363.7250 126.0000 # Q 
117 3 3 128.2250 364.1180 124.9500 # D 
118 3 2 129.4000 363.1430 124.7200 # C 
119 3 7 130.5700 363.9070 124.0400 # L 
120 3 7 130.2000 364.6040 122.7300 # L 
121 3 6 131.4070 365.3070 122.1100 # K 
122 3 8 129.8190 362.4030 125.9900 # Q 
123 3 1 131.0580 361.7080 126.0400 # A 
124 3 8 131.3860 360.9610 127.1800 # Q 
125 3 4 132.7860 360.0160 127.5300 # F 
126 3 8 132.1980 359.5170 129.0900 # Q 
127 3 8 130.9580 360.0890 129.3100 # Q 
128 3 8 130.5010 360.8930 128.2300 # Q 
129 3 8 129.2620 361.5490 128.2000 # Q 
130 3 8 128.9000 362.3170 127.0700 # Q 
131 3 8 127.6190 362.9140 127.0800 # Q 
132 3 8 126.7410 362.6930 128.1800 # Q 
133 3 1 127.1950 361.9210 129.2800 # A 
134 3 8 128.4660 361.3210 129.3600 # Q 
135 3 8 128.9490 360.5050 130.5000 # Q 
136 3 1 128.2250 360.2840 131.6900 # A 
137 3 8 128.7140 359.5170 132.7700 # Q 
138 3 8 129.9720 358.8780 132.6800 # Q 
139 3 3 130.4530 357.9410 133.7700 # D 
140 3 2 129.6680 358.0110 135.0900 # C 
141 3 3 128.1700 358.1310 134.8000 # D 
142 3 2 127.8570 359.4240 134.0300 # C 
143 3 7 128.0220 360.6630 134.9500 # L 
144 3 6 127.3580 361.9330 134.4200 # K 
145 3 7 130.0080 356.8490 136.0500 # L 
146 3 7 129.4600 355.4740 135.6500 # L 
147 3 7 129.9780 354.3430 136.5500 # L 
148 3 6 129.5120 354.4510 137.9900 # K 
149 3 8 130.7560 359.0500 131.5000 # Q 
150 3 1 132.0250 358.4690 131.2600 # A 
151 3 8 132.7710 358.6720 130.0600 # Q 
152 3 7 134.1030 357.9750 129.8900 # L 
153 3 5 134.0200 356.6710 129.0700 # J 
154 3 6 135.4300 356.1430 128.7900 # K 
155 3 6 133.1980 355.5920 129.7800 # K 
156 3 8 130.2220 359.8620 130.4900 # Q 
157 4 6 184.6930 186.4460 307.1300 # K 
158 4 8 185.2190 185.3150 306.2900 # Q 
159 4 1 185.3240 184.0510 306.8800 # A 
160 4 8 185.7820 182.9420 306.1600 # Q 
161 4 7 185.8690 181.6170 306.8900 # L 
162 4 7 187.2440 181.4490 307.5500 # L 
163 4 5 187.3420 180.2060 308.4700 # J 
164 4 6 187.3180 178.9130 307.6500 # K 
165 4 7 188.6140 180.3220 309.3400 # L 
166 4 7 188.7650 179.2340 310.4000 # L 
167 4 6 189.7310 178.1290 310.0000 # K 
168 4 8 186.1820 183.1100 304.8100 # Q 
169 4 3 186.5240 181.9160 303.9500 # D 
170 4 2 187.4210 182.1730 302.7200 # C 
171 4 7 187.2450 181.0080 301.7100 # L 
172 4 7 187.5330 179.6160 302.2800 # L 
173 4 6 187.3640 178.5330 301.2200 # K 
174 4 8 187.1930 183.5500 302.1000 # Q 
175 4 1 187.6910 183.8440 300.8000 # A 
176 4 8 187.5510 185.1400 300.2800 # Q 
177 4 4 188.0560 185.7940 298.7700 # F 
178 4 8 187.4690 187.3870 299.1400 # Q 
179 4 8 186.8940 187.3810 300.3900 # Q 
180 4 8 186.9480 186.1190 301.0400 # Q 
181 4 8 186.4710 185.8610 302.3300 # Q 
182 4 8 186.5880 184.5670 302.8900 # Q 
183 4 8 186.1290 184.3860 304.2100 # Q 
184 4 8 185.6150 185.4970 304.9400 # Q 
185 4 1 185.5160 186.7620 304.3000 # A 
186 4 8 185.9260 187.0100 302.9700 # Q 
187 4 8 185.8360 188.3280 302.2900 # Q 
188 4 1 185.2660 189.4840 302.8600 # A 
189 4 8 185.1750 190.7260 302.1900 # Q 
190 4 8 185.7220 190.8690 300.8900 # Q 
191 4 3 185.7570 192.2250 300.2100 # D 
192 4 2 184.8790 193.3080 300.8500 # C 
193 4 3 184.9790 193.2280 302.3700 # D 
194 4 2 184.4640 191.8730 302.8900 # C 
195 4 7 182.9220 191.7860 302.7500 # L 
196 4 6 182.2710 190.6870 303.5900 # K 
197 4 7 185.1770 194.7200 300.3000 # L 
198 4 7 186.5010 195.3470 300.7500 # L 
199 4 7 186.8120 196.6650 300.0300 # L 
200 4 6 185.8230 197.7770 300.3500 # K 
201 4 8 186.3200 189.7460 300.2600 # Q 
202 4 1 186.9190 189.7330 298.9700 # A 
203 4 8 187.5070 188.5800 298.3800 # Q 
204 4 7 188.1450 188.6910 297.0100 # L 
205 4 5 189.6750 188.8820 297.0600 # J 
206 4 6 190.2490 188.7950 295.6400 # K 
207 4 6 190.0760 190.2150 297.6900 # K 
208 4 8 186.3340 188.5340 300.9700 # Q 
209 5 6 420.4460 418.0560 66.1600 # K 
210 5 8 419.4010 419.0480 66.6100 # Q 
211 5 1 418.9260 419.9630 65.6600 # A 
212 5 8 417.9400 420.9030 65.9800 # Q 
213 5 7 417.5000 421.8580 64.8900 # L 
214 5 7 418.3670 423.1260 64.8900 # L 
215 5 5 418.0930 424.0610 63.6900 # J 
216 5 6 416.7160 424.7200 63.8000 # K 
217 5 7 419.2320 425.1030 63.5900 # L 
218 5 7 419.1770 426.0060 62.3600 # L 
219 5 6 418.5990 427.3830 62.6500 # K 
220 5 8 417.4400 420.9550 67.3000 # Q 
221 5 3 416.2630 421.8380 67.6500 # D 
222 5 2 416.1030 422.2420 69.1300 # C 
223 5 7 414.6350 422.6790 69.3800 # L 
224 5 7 414.1420 423.8130 68.4800 # L 
225 5 6 412.7050 424.2020 68.8100 # K 
226 5 8 416.5840 421.1580 70.0900 # Q 
227 5 1 416.2370 421.2170 71.4700 # A 
228 5 8 416.7600 420.2630 72.3600 # Q 
229 5 4 416.5380 420.0860 74.0600 # F 
230 5 8 417.5920 418.7090 74.1600 # Q 
231 5 8 418.0790 418.4120 72.9000 # Q 
232 5 8 417.6160 419.2910 71.8900 # Q 
233 5 8 417.9930 419.2270 70.5400 # Q 
234 5 8 417.4810 420.1640 69.6200 # Q 
235 5 8 417.9360 420.0720 68.2800 # Q 
236 5 8 418.9050 419.0870 67.9300 # Q 
237 5 1 419.3520 418.1710 68.9200 # A 
238 5 8 418.9210 418.1840 70.2600 # Q 
239 5 8 419.3870 417.2380 71.3100 # Q 
240 5 1 420.2670 416.1620 71.0800 # A 
241 5 8 420.6830 415.2620 72.0900 # Q 
242 5 8 420.2560 415.4500 73.4300 # Q 
243 5 3 420.7990 414.5800 74.5500 # D 
244 5 2 421.5400 413.3130 74.1000 # C 
245 5 3 422.4230 413.6270 72.8900 # D 
246 5 2 421.5760 414.0970 71.6900 # C 
247 5 7 420.7680 412.9140 71.1000 # L 
248 5 6 420.2260 413.1610 69.6900 # K 
249 5 7 422.3130 412.6330 75.2500 # L 
250 5 7 423.5790 413.3570 75.7200 # L 
251 5 7 424.1950 412.7230 76.9700 # L 
252 5 6 424.7160 411.3120 76.7500 # K 
253 5 8 419.3730 416.5210 73.7300 # Q 
254 5 1 418.8680 416.8450 75.0200 # A 
255 5 8 417.9840 417.9300 75.2700 # Q 
256 5 7 417.5320 418.2010 76.6900 # L 
257 5 5 418.3490 419.3000 77.4000 # J 
258 5 6 417.7060 419.6330 78.7500 # K 
259 5 6 419.8070 418.8930 77.6200 # K 
260 5 8 418.9680 417.3470 72.6700 # Q 
261 6 6 300.9460 66.2660 186.0500 # K 
262 6 8 300.3670 67.4250 186.8200 # Q 
263 6 1 299.0360 67.3290 187.2400 # A 
264 6 8 298.4270 68.3490 187.9800 # Q 
265 6 7 296.9770 68.1550 188.3800 # L 
266 6 7 296.0330 68.7050 187.3000 # L 
267 6 5 294.5440 68.3810 187.5600 # J 
268 6 6 294.0050 69.1610 188.7600 # K 
269 6 7 293.7390 68.6650 186.2700 # L 
270 6 7 292.2680 68.2440 186.3200 # L 
271 6 6 291.3220 69.4060 186.5900 # K 
272 6 8 299.1600 69.5170 188.2700 # Q 
273 6 3 298.6000 70.5670 189.2100 # D 
274 6 2 299.1780 71.9940 189.0800 # C 
275 6 7 298.8940 72.7740 190.4000 # L 
276 6 7 297.4140 72.8430 190.7900 # L 
277 6 6 297.2160 73.6470 192.0700 # K 
278 6 8 300.6540 72.0040 188.6900 # Q 
279 6 1 301.4280 73.1880 188.8200 # A 
280 6 8 302.7570 73.2040 188.3700 # Q 
281 6 4 303.9230 74.4740 188.3900 # F 
282 6 8 305.1400 73.5150 187.6000 # Q 
283 6 8 304.6350 72.2500 187.3600 # Q 
284 6 8 303.2930 72.0810 187.7800 # Q 
285 6 8 302.5430 70.9090 187.6100 # Q 
286 6 8 301.2050 70.8520 188.0600 # Q 
287 6 8 300.4910 69.6580 187.8200 # Q 
288 6 8 301.1150 68.5900 187.1100 # Q 
289 6 1 302.4730 68.7260 186.7100 # A 
290 6 8 303.2540 69.8740 186.9400 # Q 
291 6 8 304.6700 70.0300 186.5200 # Q 
292 6 1 305.4360 69.0260 185.9000 # A 
293 6 8 306.7910 69.1930 185.5200 # Q 
294 6 8 307.4320 70.4380 185.7200 # Q 
295 6 3 308.8390 70.6810 185.2000 # D 
296 6 2 309.6090 69.4220 184.7800 # C 
297 6 3 308.6790 68.4670 184.0300 # D 
298 6 2 307.5220 67.9980 184.9300 # C 
299 6 7 308.0380 67.0210 186.0100 # L 
300 6 6 306.9480 66.1920 186.6900 # K 
301 6 7 310.9000 69.7480 183.9900 # L 
302 6 7 310.7000 70.2600 182.5600 # L 
303 6 7 312.0060 70.7260 181.9100 # L 
304 6 6 313.0130 69.6060 181.7000 # K 
305 6 8 306.7180 71.5010 186.3400 # Q 
306 6 1 307.2160 72.8040 186.5900 # A 
307 6 8 306.4590 73.8360 187.2100 # Q 
308 6 7 307.0840 75.2000 187.4100 # L 
309 6 5 306.7050 76.2160 186.3100 # J 
310 6 6 307.2260 77.6050 186.6900 # K 
311 6 6 307.2530 75.8210 184.9400 # K 
312 6 8 305.3890 71.2460 186.7200 # Q 
313 7 6 66.3120 304.6130 417.8700 # K 
314 7 8 67.1610 304.9200 419.0800 # Q 
315 7 1 66.7760 305.9910 419.8900 # A 
316 7 8 67.4960 306.3310 421.0400 # Q 
317 7 7 67.0040 307.5150 421.8500 # L 
318 7 7 67.6460 308.8200 421.3600 # L 
319 7 5 67.0580 310.0860 422.0200 # J 
320 7 6 67.4490 310.1770 423.5000 # K 
321 7 7 67.5140 311.3280 421.2200 # L 
322 7 7 66.8820 312.6490 421.6600 # L 
323 7 6 67.7980 313.4850 422.5500 # K 
324 7 8 68.6560 305.5990 421.3700 # Q 
325 7 3 69.3670 305.8230 422.6900 # D 
326 7 2 70.8520 305.4050 422.7600 # C 
327 7 7 71.2540 305.2180 424.2500 # L 
328 7 7 71.0130 306.4460 425.1400 # L 
329 7 6 71.4580 306.1920 426.5700 # K 
330 7 8 71.1700 304.1870 421.9000 # Q 
331 7 1 72.3890 303.4780 422.0700 # A 
332 7 8 72.7040 302.4170 421.2100 # Q 
333 7 4 74.0910 301.3940 421.1600 # F 
334 7 8 73.5300 300.5100 419.7800 # Q 
335 7 8 72.2980 301.0060 419.3900 # Q 
336 7 8 71.8400 302.0820 420.1900 # Q 
337 7 8 70.6420 302.7820 419.9800 # Q 
338 7 8 70.2880 303.8500 420.8300 # Q 
339 7 8 69.0920 304.5420 420.5400 # Q 
340 7 8 68.3220 304.1760 419.4000 # Q 
341 7 1 68.7440 303.0740 418.6000 # A 
342 7 8 69.9080 302.3210 418.8500 # Q 
343 7 8 70.3630 301.1740 418.0300 # Q 
344 7 1 69.6550 300.6470 416.9300 # A 
345 7 8 70.1010 299.5400 416.1700 # Q 
346 7 8 71.3460 298.9360 416.4600 # Q 
347 7 3 71.9060 297.8380 415.5700 # D 
348 7 2 70.9060 297.2190 414.5800 # C 
349 7 3 70.0270 298.3130 413.9700 # D 
350 7 2 69.1980 299.0260 415.0500 # C 
351 7 7 68.0800 298.0930 415.5900 # L 
352 7 6 66.9670 298.8090 416.3500 # K 
353 7 7 71.5910 296.3320 413.5200 # L 
354 7 7 72.3880 297.0760 412.4400 # L 
355 7 7 73.1790 296.1340 411.5300 # L 
356 7 6 72.2990 295.2240 410.6800 # K 
357 7 8 72.1200 299.4200 417.5500 # Q 
358 7 1 73.3850 298.9290 417.9600 # A 
359 7 8 74.1220 299.4500 419.0600 # Q 
360 7 7 75.4790 298.8660 419.3800 # L 
361 7 5 76.6570 299.6780 418.8000 # J 
362 7 6 77.9800 299.1240 419.3400 # K 
363 7 6 76.6770 299.6630 417.2700 # K 
364 7 8 71.5900 300.4950 418.2900 # Q 
365 8 6 101.0070 156.7120 162.1000 # K 
366 8 8 99.9140 156.0410 161.3100 # Q 
367 8 1 99.3550 154.8690 161.8400 # A 
368 8 8 98.3200 154.1950 161.1800 # Q 
369 8 7 97.7880 152.9280 161.8200 # L 
370 8 7 98.5730 151.6990 161.3400 # L 
371 8 5 98.2040 150.3980 162.0800 # J 
372 8 6 96.7920 149.9310 161.7200 # K 
373 8 7 99.2710 149.3220 161.7700 # L 
374 8 7 99.1230 148.0220 162.5700 # L 
375 8 6 98.4670 146.9040 161.7700 # K 
376 8 8 97.8560 154.6870 159.9400 # Q 
377 8 3 96.6360 154.0890 159.2800 # D 
378 8 2 96.4930 154.2950 157.7500 # C 
379 8 7 95.0070 154.0920 157.3500 # L 
380 8 7 94.4170 152.7360 157.7500 # L 
381 8 6 92.9680 152.6050 157.2900 # K 
382 8 8 97.0690 155.6290 157.2800 # Q 
383 8 1 96.7590 156.1260 155.9800 # A 
384 8 8 97.3680 157.3080 155.5300 # Q 
385 8 4 97.2060 158.1370 154.0300 # F 
386 8 8 98.3480 159.3720 154.4600 # Q 
387 8 8 98.8170 159.1290 155.7400 # Q 
388 8 8 98.2700 157.9650 156.3400 # Q 
389 8 8 98.6110 157.4810 157.6100 # Q 
390 8 8 98.0140 156.3000 158.1000 # Q 
391 8 8 98.4360 155.8420 159.3700 # Q 
392 8 8 99.4550 156.5470 160.0700 # Q 
393 8 1 99.9880 157.7390 159.5100 # A 
394 8 8 99.5960 158.2700 158.2700 # Q 
395 8 8 100.1520 159.5090 157.6600 # Q 
396 8 1 101.0920 160.3510 158.2900 # A 
397 8 8 101.5930 161.5380 157.7000 # Q 
398 8 8 101.1940 161.9060 156.4000 # Q 
399 8 3 101.8240 163.0980 155.7000 # D 
400 8 2 102.6310 164.0400 156.6000 # C 
401 8 3 103.4570 163.2260 157.6000 # D 
402 8 2 102.5480 162.3950 158.5200 # C 
403 8 7 101.8000 163.3140 159.5200 # L 
404 8 6 101.2030 162.5860 160.7300 # K 
405 8 7 103.4780 165.0530 155.8000 # L 
406 8 7 104.7080 164.4780 155.0900 # L 
407 8 7 105.4000 165.4980 154.1800 # L 
408 8 6 106.0030 166.6740 154.9300 # K 
409 8 8 100.2530 161.0980 155.7000 # Q 
410 8 1 99.7650 161.3270 154.3900 # A 
411 8 8 98.8220 160.4860 153.7400 # Q 
412 8 7 98.3940 160.8120 152.3200 # L 
413 8 5 99.1590 160.0140 151.2400 # J 
414 8 6 98.5340 160.2680 149.8700 # K 
415 8 6 100.6460 160.3690 151.2100 # K 
416 8 8 99.7660 159.9580 156.3700 # Q 
417 9 6 328.2950 387.7900 392.2100 # K 
418 9 8 329.0230 387.3220 390.9800 # Q 
419 9 1 328.7810 386.0190 390.5300 # A 
420 9 8 329.3980 385.5140 389.3800 # Q 
421 9 7 329.0770 384.0860 388.9800 # L 
422 9 7 330.0520 383.1010 389.6500 # L 
423 9 5 329.6760 381.6180 389.4300 # J 
424 9 6 329.8770 381.2000 387.9700 # K 
425 9 7 330.4970 380.7450 390.4100 # L 
426 9 7 330.1190 379.2610 390.4200 # L 
427 9 6 331.0730 378.3950 389.6100 # K 
428 9 8 330.3140 386.3240 388.6800 # Q 
429 9 3 330.8750 385.8810 387.3500 # D 
430 9 2 332.2080 386.5210 386.9000 # C 
431 9 7 332.3580 386.3650 385.3600 # L 
432 9 7 332.2790 384.9190 384.8600 # L 
433 9 6 332.4620 384.8480 383.3400 # K 
434 9 8 332.3610 387.9660 387.3700 # Q 
435 9 1 333.3590 388.8070 386.8100 # A 
436 9 8 333.5440 390.1020 387.3200 # Q 
437 9 4 334.6640 391.3290 386.8600 # F 
438 9 8 334.1100 392.4420 388.0800 # Q 
439 9 8 333.0800 391.8580 388.7900 # Q 
440 9 8 332.7700 390.5400 388.3700 # Q 
441 9 8 331.7950 389.7210 388.9600 # Q 
442 9 8 331.5750 388.4150 388.4700 # Q 
443 9 8 330.6120 387.6270 389.1400 # Q 
444 9 8 329.9390 388.1470 390.2800 # Q 
445 9 1 330.2080 389.4800 390.6900 # A 
446 9 8 331.1330 390.3330 390.0600 # Q 
447 9 8 331.4290 391.7240 390.4900 # Q 
448 9 1 330.7750 392.3940 391.5400 # A 
449 9 8 331.0620 393.7280 391.9200 # Q 
450 9 8 332.0920 394.4430 391.2700 # Q 
451 9 3 332.5080 395.8230 391.7500 # D 
452 9 2 331.5370 396.4980 392.7300 # C 
453 9 3 331.0110 395.4730 393.7300 # D 
454 9 2 330.2230 394.3560 393.0300 # C 
455 9 7 328.8660 394.8930 392.5000 # L 
456 9 6 327.8480 393.8100 392.1600 # K 
457 9 7 332.1430 397.7490 393.4000 # L 
458 9 7 333.2210 397.4810 394.4600 # L 
459 9 7 333.8980 398.7630 394.9600 # L 
460 9 6 332.9590 399.6950 395.7000 # K 
461 9 8 332.8020 393.8270 390.2000 # Q 
462 9 1 333.8620 394.4060 389.4600 # A 
463 9 8 334.5430 393.7460 388.4000 # Q 
464 9 7 335.6820 394.4510 387.7000 # L 
465 9 5 337.0760 394.0520 388.2200 # J 
466 9 6 338.1610 394.6670 387.3300 # K 
467 9 6 337.2950 394.4870 389.6700 # K 
468 9 8 332.4300 392.5150 389.8500 # Q 
469 10 6 447.3920 45.7310 275.9300 # K 
470 10 8 447.0850 45.3610 274.5000 # Q 
471 10 1 446.3570 46.2750 273.7300 # A 
472 10 8 446.0500 46.0200 272.3900 # Q 
473 10 7 445.2470 47.0680 271.6500 # L 
474 10 7 443.7400 46.8090 271.7900 # L 
475 10 5 442.8600 47.9370 271.2100 # J 
476 10 6 442.9460 47.9750 269.6800 # K 
477 10 7 441.4090 47.7500 271.7100 # L 
478 10 7 440.4490 48.8830 271.3300 # L 
479 10 6 439.5660 48.5520 270.1400 # K 
480 10 8 446.4500 44.7970 271.8100 # Q 
481 10 3 446.2850 44.5510 270.3300 # D 
482 10 2 446.2460 43.0790 269.8600 # C 
483 10 7 446.5900 43.0150 268.3500 # L 
484 10 7 445.6860 43.8700 267.4600 # L 
485 10 6 446.0700 43.7310 265.9900 # K 
486 10 8 447.1220 42.1630 270.7200 # Q 
487 10 1 447.4540 40.8570 270.2700 # A 
488 10 8 448.1840 39.9980 271.1000 # Q 
489 10 4 448.7160 38.3790 270.8400 # F 
490 10 8 449.4410 38.2480 272.4200 # Q 
491 10 8 449.2700 39.4400 273.1000 # Q 
492 10 8 448.5570 40.4190 272.3600 # Q 
493 10 8 448.2200 41.6930 272.8400 # Q 
494 10 8 447.4930 42.5880 272.0200 # Q 
495 10 8 447.1460 43.8380 272.5800 # Q 
496 10 8 447.4960 44.1310 273.9300 # Q 
497 10 1 448.2450 43.1780 274.6800 # A 
498 10 8 448.6500 41.9260 274.1800 # Q 
499 10 8 449.4250 40.9190 274.9500 # Q 
500 10 1 449.9160 41.1130 276.2500 # A 
501 10 8 450.6690 40.1440 276.9600 # Q 
502 10 8 450.9190 38.8800 276.3800 # Q 
503 10 3 451.6040 37.7800 277.1700 # D 
504 10 2 452.2890 38.2330 278.4700 # C 
505 10 3 451.4100 39.2540 279.1900 # D 
506 10 2 451.2020 40.5150 278.3300 # C 
507 10 7 452.5120 41.3430 278.2500 # L 
508 10 6 452.3220 42.7830 277.7900 # K 
509 10 7 452.7070 37.0490 279.3600 # L 
510 10 7 451.5640 36.3150 280.0800 # L 
511 10 7 452.0320 35.0520 280.8100 # L 
512 10 6 452.9800 35.3340 281.9600 # K 
513 10 8 450.4470 38.6100 275.0600 # Q 
514 10 1 450.6080 37.3940 274.3500 # A 
515 10 8 450.1150 37.1730 273.0300 # Q 
516 10 7 450.3180 35.8220 272.3800 # L 
517 10 5 449.0960 34.8880 272.5000 # J 
518 10 6 449.3230 33.6300 271.6600 # K 
519 10 6 448.8070 34.4900 273.9500 # K 
520 10 8 449.7450 39.6380 274.4100 # Q 
521 11 6 212.6040 271.9780 44.6100 # K 
522 11 8 213.8970 271.3690 44.1300 # Q 
523 11 1 214.3620 270.2240 44.7900 # A 
524 11 8 215.5430 269.5830 44.3900 # Q 
525 11 7 215.9670 268.3550 45.1800 # L 
526 11 7 216.8600 268.7450 46.3600 # L 
527 11 5 217.1830 267.5650 47.3100 # J 
528 11 6 218.1150 266.5540 46.6400 # K 
529 11 7 217.7760 268.1220 48.6200 # L 
530 11 7 218.0040 267.0780 49.7200 # L 
531 11 6 219.4530 266.6270 49.8300 # K 
532 11 8 216.3010 270.1240 43.3300 # Q 
533 11 3 217.4870 269.3770 42.7700 # D 
534 11 2 218.5460 270.2090 42.0100 # C 
535 11 7 219.3730 269.2690 41.1000 # L 
536 11 7 220.0490 268.1010 41.8200 # L 
537 11 6 220.8620 267.2430 40.8600 # K 
538 11 8 217.9430 271.4000 41.2700 # Q 
539 11 1 218.6990 272.0900 40.2800 # A 
540 11 8 218.1630 273.2350 39.6700 # Q 
541 11 4 218.8340 274.2750 38.4700 # F 
542 11 8 217.4570 275.3330 38.4600 # Q 
543 11 8 216.5170 274.8640 39.3600 # Q 
544 11 8 216.9190 273.6900 40.0500 # Q 
545 11 8 216.1640 273.0420 41.0400 # Q 
546 11 8 216.6670 271.8830 41.6700 # Q 
547 11 8 215.8770 271.3050 42.6900 # Q 
548 11 8 214.6470 271.9210 43.0600 # Q 
549 11 1 214.2080 273.0770 42.3600 # A 
550 11 8 214.9270 273.6900 41.3200 # Q 
551 11 8 214.4830 274.9020 40.5800 # Q 
552 11 1 213.2520 275.5560 40.7900 # A 
553 11 8 212.8420 276.7010 40.0600 # Q 
554 11 8 213.7090 277.2820 39.1100 # Q 
555 11 3 213.3460 278.5860 38.4200 # D 
556 11 2 211.8810 279.0220 38.5700 # C 
557 11 3 211.3990 278.7610 40.0000 # D 
558 11 2 211.4530 277.2600 40.3300 # C 
559 11 7 210.3480 276.4890 39.5600 # L 
560 11 6 210.0460 275.0990 40.1200 # K 
561 11 7 211.6440 280.4760 38.1100 # L 
562 11 7 212.1930 281.5680 39.0300 # L 
563 11 7 212.0760 282.9740 38.4300 # L 
564 11 6 210.6400 283.4330 38.2300 # K 
565 11 8 214.9720 276.6800 38.8500 # Q 
566 11 1 215.9500 277.1470 37.9400 # A 
567 11 8 217.2030 276.5080 37.7200 # Q 
568 11 7 218.1840 277.1140 36.7400 # L 
569 11 5 219.2670 277.9860 37.4100 # J 
570 11 6 220.3140 278.3970 36.3700 # K 
571 11 6 218.6820 279.2350 38.0700 # K 
572 11 8 215.2910 275.5190 39.5800 # Q 
573 12 6 153.5090 98.9450 450.2000 # K 
574 12 8 154.8900 98.9170 450.8000 # Q 
575 12 1 154.9920 98.8900 452.2000 # A 
576 12 8 156.2360 98.8410 452.8400 # Q 
577 12 7 156.2410 98.8250 454.3600 # L 
578 12 7 156.2790 100.2550 454.9200 # L 
579 12 5 156.1060 100.3210 456.4500 # J 
580 12 6 157.3290 99.7540 457.1700 # K 
581 12 7 155.8130 101.7840 456.8600 # L 
582 12 7 155.4650 101.9810 458.3400 # L 
583 12 6 156.6340 102.4960 459.1600 # K 
584 12 8 157.4130 98.8550 452.0600 # Q 
585 12 3 158.7650 98.6380 452.7000 # D 
586 12 2 159.9970 99.1670 451.9400 # C 
587 12 7 161.2670 98.4310 452.4400 # L 
588 12 7 161.5070 98.5390 453.9500 # L 
589 12 6 162.7850 97.8150 454.3600 # K 
590 12 8 159.8260 99.0970 450.4200 # Q 
591 12 1 160.9500 99.2440 449.5600 # A 
592 12 8 160.7620 99.2660 448.1700 # Q 
593 12 4 161.9080 99.4430 446.8900 # F 
594 12 8 160.6990 99.3820 445.6500 # Q 
595 12 8 159.4540 99.2190 446.2300 # Q 
596 12 8 159.4930 99.1620 447.6500 # Q 
597 12 8 158.3650 99.0400 448.4700 # Q 
598 12 8 158.5160 99.0060 449.8800 # Q 
599 12 8 157.3370 98.9290 450.6500 # Q 
600 12 8 156.0640 98.9290 450.0100 # Q 
601 12 1 156.0070 98.9460 448.5900 # A 
602 12 8 157.1380 98.9940 447.7500 # Q 
603 12 8 157.0910 99.0210 446.2700 # Q 
604 12 1 155.9110 98.9330 445.5000 # A 
605 12 8 155.8920 98.9420 444.0900 # Q 
606 12 8 157.0970 99.1010 443.3700 # Q 
607 12 3 157.0840 99.2520 441.8500 # D 
608 12 2 155.7610 98.8830 441.1700 # C 
609 12 3 154.5810 99.4050 441.9900 # D 
610 12 2 154.5530 98.7610 443.3900 # C 
611 12 7 154.1350 97.2700 443.2900 # L 
612 12 6 153.6830 96.6550 444.6100 # K 
613 12 7 155.7120 99.3280 439.6900 # L 
614 12 7 155.5600 100.8360 439.4500 # L 
615 12 7 155.6920 101.2230 437.9800 # L 
616 12 6 154.5840 100.6610 437.1000 # K 
617 12 8 158.3270 99.2050 444.0700 # Q 
618 12 1 159.6100 99.3770 443.4900 # A 
619 12 8 160.8130 99.4770 444.2500 # Q 
620 12 7 162.1250 99.6910 443.5200 # L 
621 12 5 162.5730 101.1670 443.4800 # J 
622 12 6 163.9870 101.2610 442.9000 # K 
623 12 6 161.6230 102.0380 442.6500 # K 
624 12 8 158.2710 99.1430 445.4800 # Q 
625 13 6 392.7090 329.5590 212.6700 # K 
626 13 8 392.0290 329.0100 213.8900 # Q 
627 13 1 392.0320 327.6230 214.0800 # A 
628 13 8 391.4430 327.0320 215.2000 # Q 
629 13 7 391.4900 325.5200 215.3100 # L 
630 13 7 390.2640 324.8880 214.6300 # L 
631 13 5 390.3350 323.3470 214.5400 # J 
632 13 6 390.2000 322.7010 215.9200 # K 
633 13 7 389.2490 322.8520 213.5500 # L 
634 13 7 389.2970 321.3540 213.2400 # L 
635 13 6 388.2690 320.5470 214.0200 # K 
636 13 8 390.7990 327.8510 216.1500 # Q 
637 13 3 390.2970 327.2750 217.4600 # D 
638 13 2 389.1850 328.0600 218.1900 # C 
639 13 7 389.1650 327.6410 219.6800 # L 
640 13 7 388.9840 326.1370 219.9200 # L 
641 13 6 388.9470 325.8110 221.4100 # K 
642 13 8 389.2970 329.5710 217.9900 # Q 
643 13 1 388.5650 330.4630 218.8200 # A 
644 13 8 388.6100 331.8430 218.5700 # Q 
645 13 4 387.8320 333.1500 219.3800 # F 
646 13 8 388.4830 334.3490 218.3000 # Q 
647 13 8 389.2840 333.7280 217.3600 # Q 
648 13 8 389.3480 332.3190 217.5100 # Q 
649 13 8 390.0580 331.4590 216.6600 # Q 
650 13 8 390.0430 330.0650 216.8900 # Q 
651 13 8 390.7410 329.2510 215.9700 # Q 
652 13 8 391.3880 329.8440 214.8400 # Q 
653 13 1 391.3690 331.2590 214.7000 # A 
654 13 8 390.7180 332.1340 215.5900 # Q 
655 13 8 390.6840 333.6120 215.4500 # Q 
656 13 1 391.3550 334.3350 214.4400 # A 
657 13 8 391.3220 335.7470 214.3400 # Q 
658 13 8 390.5420 336.5060 215.2400 # Q 
659 13 3 390.3830 338.0060 215.0600 # D 
660 13 2 391.3700 338.6590 214.0800 # C 
661 13 3 391.5580 337.7670 212.8600 # D 
662 13 2 392.1570 336.4040 213.2500 # C 
663 13 7 393.6440 336.5600 213.6600 # L 
664 13 6 394.4370 335.2550 213.6700 # K 
665 13 7 390.9790 340.1090 213.7200 # L 
666 13 7 389.7660 340.2620 212.8000 # L 
667 13 7 389.3310 341.7220 212.6200 # L 
668 13 6 390.3650 342.5830 211.9200 # K 
669 13 8 389.8310 335.8430 216.2800 # Q 
670 13 1 389.0020 336.4590 217.2500 # A 
671 13 8 388.3080 335.7490 218.2700 # Q 
672 13 7 387.4250 336.5100 219.2300 # L 
673 13 5 385.9320 336.4950 218.8500 # J 
674 13 6 385.1010 337.1220 219.9700 # K 
675 13 6 385.6620 337.2350 217.5400 # K 
676 13 8 389.9470 334.4410 216.3500 # Q 
677 14 6 275.0480 213.1500 95.8300 # K 
678 14 8 274.1840 212.7350 97.0000 # Q 
679 14 1 273.4930 211.5230 96.9000 # A 
680 14 8 272.6870 211.0520 97.9400 # Q 
681 14 7 271.9710 209.7320 97.7300 # L 
682 14 7 270.5920 209.9530 97.0900 # L 
683 14 5 269.8820 208.6420 96.6800 # J 
684 14 6 269.4430 207.8440 97.9100 # K 
685 14 7 268.6950 208.9820 95.7500 # L 
686 14 7 267.9870 207.7690 95.1500 # L 
687 14 6 266.6930 207.4090 95.8600 # K 
688 14 8 272.5390 211.8350 99.1000 # Q 
689 14 3 271.8160 211.2930 100.3200 # D 
690 14 2 271.2470 212.3250 101.3100 # C 
691 14 7 271.0190 211.6370 102.6900 # L 
692 14 7 270.1100 210.4030 102.6400 # L 
693 14 6 269.9150 209.8020 104.0300 # K 
694 14 8 272.1000 213.5900 101.4100 # Q 
695 14 1 271.9130 214.5050 102.4800 # A 
696 14 8 272.6430 215.7040 102.5100 # Q 
697 14 4 272.6230 216.9960 103.6500 # F 
698 14 8 273.7870 217.9370 102.7700 # Q 
699 14 8 274.1700 217.2420 101.6300 # Q 
700 14 8 273.5200 215.9920 101.4800 # Q 
701 14 8 273.7040 215.1170 100.4000 # Q 
702 14 8 272.9930 213.8980 100.3500 # Q 
703 14 8 273.1900 213.0850 99.2100 # Q 
704 14 8 274.0470 213.5300 98.1600 # Q 
705 14 1 274.7390 214.7630 98.3100 # A 
706 14 8 274.6140 215.6110 99.4300 # Q 
707 14 8 275.3240 216.9060 99.5900 # Q 
708 14 1 276.2670 217.4200 98.6800 # A 
709 14 8 276.9450 218.6500 98.8600 # Q 
710 14 8 276.6500 219.4600 99.9800 # Q 
711 14 3 277.2630 220.8420 100.1300 # D 
712 14 2 278.4450 221.1380 99.1900 # C 
713 14 3 278.1600 220.5790 97.8000 # D 
714 14 2 277.9970 219.0490 97.8300 # C 
715 14 7 279.3620 218.3610 98.0900 # L 
716 14 6 279.3950 216.8730 97.7500 # K 
717 14 7 278.8320 222.6330 99.1800 # L 
718 14 7 277.8590 223.5670 98.4500 # L 
719 14 7 278.2130 225.0480 98.6200 # L 
720 14 6 279.5400 225.4330 97.9900 # K 
721 14 8 275.7020 219.0080 100.9400 # Q 
722 14 1 275.2930 219.7060 102.1000 # A 
723 14 8 274.3370 219.2100 103.0300 # Q 
724 14 7 273.9540 220.0570 104.2300 # L 
725 14 5 272.6530 220.8610 104.0200 # J 
726 14 6 272.2480 221.5340 105.3400 # K 
727 14 6 272.7900 221.9190 102.9300 # K 
728 14 8 275.1010 217.7550 100.7100 # Q 
729 15 6 36.8210 448.2780 331.4100 # K 
730 15 8 37.6530 447.0590 331.7200 # Q 
731 15 1 36.9840 445.8940 332.1100 # A 
732 15 8 37.6780 444.7110 332.3900 # Q 
733 15 7 36.8640 443.5040 332.8200 # L 
734 15 7 36.6830 443.4770 334.3400 # L 
735 15 5 35.7150 442.3760 334.8300 # J 
736 15 6 36.3160 440.9820 334.6400 # K 
737 15 7 35.3410 442.6550 336.3000 # L 
738 15 7 34.2640 441.7320 336.8800 # L 
739 15 6 34.8320 440.6140 337.7400 # K 
740 15 8 39.0870 444.7040 332.3100 # Q 
741 15 3 39.8630 443.4140 332.4500 # D 
742 15 2 41.3450 443.5260 332.8700 # C 
743 15 7 42.0910 442.2270 332.4600 # L 
744 15 7 41.4840 440.9390 333.0300 # L 
745 15 6 42.2880 439.7140 332.6100 # K 
746 15 8 42.0160 444.7950 332.3400 # Q 